DF-ISE text

Info {
  version   = 1.0
  type      = xyplot
  datasets  = [
    "time"
    "S OuterVoltage" "S InnerVoltage" "S QuasiFermiPotential" "S DisplacementCurrent" "S eCurrent"
    "S hCurrent" "S TotalCurrent" "S Charge" "D OuterVoltage" "D InnerVoltage"
    "D QuasiFermiPotential" "D DisplacementCurrent" "D eCurrent" "D hCurrent" "D TotalCurrent"
    "D Charge" "G OuterVoltage" "G InnerVoltage" "G QuasiFermiPotential" "G DisplacementCurrent"
    "G eCurrent" "G hCurrent" "G TotalCurrent" "G Charge" ]
  functions = [
    Time
    OuterVoltage InnerVoltage QuasiFermiPotential DisplacementCurrent eCurrent
    hCurrent TotalCurrent Charge OuterVoltage InnerVoltage
    QuasiFermiPotential DisplacementCurrent eCurrent hCurrent TotalCurrent
    Charge OuterVoltage InnerVoltage QuasiFermiPotential DisplacementCurrent
    eCurrent hCurrent TotalCurrent Charge ]
}

Data {
      0.00000000000000E+00
      0.00000000000000E+00   0.00000000000000E+00   0.00000000000000E+00   0.00000000000000E+00   1.78055672238495E-19
     -7.25625992525514E-36   1.78055672238495E-19   3.75238885488017E-16   0.00000000000000E+00   0.00000000000000E+00
      0.00000000000000E+00   0.00000000000000E+00   3.52603822746831E-19  -2.66047459909024E-36   3.52603822746831E-19
      4.54243769809914E-16  -5.00000000000000E-01  -5.00000000000000E-01   0.00000000000000E+00   0.00000000000000E+00
      0.00000000000000E+00   0.00000000000000E+00   0.00000000000000E+00  -3.42207158772672E-16
      0.00000000000000E+00
      0.00000000000000E+00   0.00000000000000E+00   0.00000000000000E+00   0.00000000000000E+00  -1.42444306210954E-18
     -6.25980721335380E-32  -1.42444306210961E-18   3.75238885486200E-16   0.00000000000000E+00   0.00000000000000E+00
      0.00000000000000E+00   0.00000000000000E+00   1.76301436468064E-19  -6.29074777034335E-32   1.76301436468001E-19
      4.54243769808308E-16  -5.00000000000000E-01  -5.00000000000000E-01   0.00000000000000E+00   0.00000000000000E+00
      0.00000000000000E+00   0.00000000000000E+00   0.00000000000000E+00  -3.42207158773004E-16
      1.00000000000000E-03
      0.00000000000000E+00   0.00000000000000E+00   0.00000000000000E+00   0.00000000000000E+00  -2.59033604630415E-18
     -1.14991202313808E-21  -2.59148595832729E-18   3.75179636522946E-16   1.00000000000000E-03   1.00000000000000E-03
      0.00000000000000E+00   0.00000000000000E+00   3.27578822919369E-19   1.70599453431705E-21   3.29284817453686E-19
      4.54395848555353E-16  -5.00000000000000E-01  -5.00000000000000E-01   0.00000000000000E+00   0.00000000000000E+00
      0.00000000000000E+00   0.00000000000000E+00   0.00000000000000E+00  -3.42616845766123E-16
      2.17333333333333E-03
      0.00000000000000E+00   0.00000000000000E+00   0.00000000000000E+00   0.00000000000000E+00  -5.66737109504871E-19
     -2.50120482255404E-21  -5.69238314327425E-19   3.75111067717826E-16   2.17333333333333E-03   2.17333333333333E-03
      0.00000000000000E+00   0.00000000000000E+00   3.14826090772460E-18   3.67696198452282E-21   3.15193786970912E-18
      4.54575062157338E-16  -5.00000000000000E-01  -5.00000000000000E-01   0.00000000000000E+00   0.00000000000000E+00
      0.00000000000000E+00   0.00000000000000E+00   0.00000000000000E+00  -3.43091846460933E-16
      3.56568888888889E-03
      0.00000000000000E+00   0.00000000000000E+00   0.00000000000000E+00   0.00000000000000E+00  -8.77949542802418E-19
     -4.10711921849899E-21  -8.82056662020917E-19   3.75031010459038E-16   3.56568888888889E-03   3.56568888888889E-03
      0.00000000000000E+00   0.00000000000000E+00   4.41445680156787E-18   5.97206755265854E-21   4.42042886912053E-18
      4.54788794304149E-16  -5.00000000000000E-01  -5.00000000000000E-01   0.00000000000000E+00   0.00000000000000E+00
      0.00000000000000E+00   0.00000000000000E+00   0.00000000000000E+00  -3.43647653356241E-16
      5.21795081481481E-03
      0.00000000000000E+00   0.00000000000000E+00   0.00000000000000E+00   0.00000000000000E+00  -3.52810062818651E-18
     -6.01532596910738E-21  -3.53411595415562E-18   3.74937822597833E-16   5.21795081481481E-03   5.21795081481481E-03
      0.00000000000000E+00   0.00000000000000E+00   2.72380782303976E-18   8.63292366385255E-21   2.73244074670361E-18
      4.55043890736326E-16  -5.00000000000000E-01  -5.00000000000000E-01   0.00000000000000E+00   0.00000000000000E+00
      0.00000000000000E+00   0.00000000000000E+00   0.00000000000000E+00  -3.44296344921958E-16
      7.17863496691358E-03
      0.00000000000000E+00   0.00000000000000E+00   0.00000000000000E+00   0.00000000000000E+00  -5.67119037882172E-18
     -8.28195334944828E-21  -5.67947233217117E-18   3.74829737913143E-16   7.17863496691358E-03   7.17863496691358E-03
      0.00000000000000E+00   0.00000000000000E+00   6.71307552679088E-18   1.17008317070857E-20   6.72477635849797E-18
      4.55348617205896E-16  -5.00000000000000E-01  -5.00000000000000E-01   0.00000000000000E+00   0.00000000000000E+00
      0.00000000000000E+00   0.00000000000000E+00   0.00000000000000E+00  -3.45051166574495E-16
      9.50531349407078E-03
      0.00000000000000E+00   0.00000000000000E+00   0.00000000000000E+00   0.00000000000000E+00  -6.95412207734825E-18
     -1.09726836617381E-20  -6.96509476100999E-18   3.74704903214864E-16   9.50531349407078E-03   9.50531349407078E-03
      0.00000000000000E+00   0.00000000000000E+00   5.64724852613989E-18   1.52134875503856E-20   5.66246201369027E-18
      4.55712968832653E-16  -5.00000000000000E-01  -5.00000000000000E-01   0.00000000000000E+00   0.00000000000000E+00
      0.00000000000000E+00   0.00000000000000E+00   0.00000000000000E+00  -3.45926391548504E-16
      1.22663053462973E-02
      0.00000000000000E+00   0.00000000000000E+00   0.00000000000000E+00   0.00000000000000E+00  -7.73764790278481E-18
     -1.41637585409207E-20  -7.75181166132573E-18   3.74561435456263E-16   1.22663053462973E-02   1.22663053462973E-02
      0.00000000000000E+00   0.00000000000000E+00   7.10416466147103E-18   1.91999912915842E-20   7.12336465276262E-18
      4.56149044710084E-16  -5.00000000000000E-01  -5.00000000000000E-01   0.00000000000000E+00   0.00000000000000E+00
      0.00000000000000E+00   0.00000000000000E+00   0.00000000000000E+00  -3.46937079376241E-16
      1.55426823442728E-02
      0.00000000000000E+00   0.00000000000000E+00   0.00000000000000E+00   0.00000000000000E+00  -1.19481695741720E-17
     -1.79425941543443E-20  -1.19661121683264E-17   3.74397507302003E-16   1.55426823442728E-02   1.55426823442728E-02
      0.00000000000000E+00   0.00000000000000E+00   1.12634189499929E-17   2.36738402095871E-20   1.12870927902025E-17
      4.56671502060174E-16  -5.00000000000000E-01  -5.00000000000000E-01   0.00000000000000E+00   0.00000000000000E+00
      0.00000000000000E+00   0.00000000000000E+00   0.00000000000000E+00  -3.48098686104367E-16
      1.94306497152037E-02
      0.00000000000000E+00   0.00000000000000E+00   0.00000000000000E+00   0.00000000000000E+00  -1.24581770505644E-17
     -2.24079282456861E-20  -1.24805849788101E-17   3.74211454058859E-16   1.94306497152037E-02   1.94306497152037E-02
      0.00000000000000E+00   0.00000000000000E+00   1.42618541738068E-17   2.86235841255232E-20   1.42904777579323E-17
      4.57298091975734E-16  -5.00000000000000E-01  -5.00000000000000E-01   0.00000000000000E+00   0.00000000000000E+00
      0.00000000000000E+00   0.00000000000000E+00   0.00000000000000E+00  -3.49426572141958E-16
      2.40443709953751E-02
      0.00000000000000E+00   0.00000000000000E+00   0.00000000000000E+00   0.00000000000000E+00  -1.72977806542219E-17
     -2.76687788721463E-20  -1.73254494330940E-17   3.74001913462556E-16   2.40443709953751E-02   2.40443709953751E-02
      0.00000000000000E+00   0.00000000000000E+00   1.59310726244482E-17   3.40017080366210E-20   1.59650743324848E-17
      4.58050294668798E-16  -5.00000000000000E-01  -5.00000000000000E-01   0.00000000000000E+00   0.00000000000000E+00
      0.00000000000000E+00   0.00000000000000E+00   0.00000000000000E+00  -3.50935346281663E-16
      2.95193202478451E-02
      0.00000000000000E+00   0.00000000000000E+00   0.00000000000000E+00   0.00000000000000E+00  -1.73703758510638E-17
     -3.38423793711268E-20  -1.74042182304349E-17   3.73767964913275E-16   2.95193202478451E-02   2.95193202478451E-02
      0.00000000000000E+00   0.00000000000000E+00   2.11858308549519E-17   3.97128433694714E-20   2.12255436983214E-17
      4.58954035761230E-16  -5.00000000000000E-01  -5.00000000000000E-01   0.00000000000000E+00   0.00000000000000E+00
      0.00000000000000E+00   0.00000000000000E+00   0.00000000000000E+00  -3.52638247331957E-16
      3.60162600274429E-02
      0.00000000000000E+00   0.00000000000000E+00   0.00000000000000E+00   0.00000000000000E+00  -2.51748868228240E-17
     -4.10506657660627E-20  -2.52159374885901E-17   3.73509254773290E-16   3.60162600274429E-02   3.60162600274429E-02
      0.00000000000000E+00   0.00000000000000E+00   2.24794080216243E-17   4.56045427955609E-20   2.25250125644198E-17
      4.60040482821033E-16  -5.00000000000000E-01  -5.00000000000000E-01   0.00000000000000E+00   0.00000000000000E+00
      0.00000000000000E+00   0.00000000000000E+00   0.00000000000000E+00  -3.54546648019537E-16
      4.36393360355042E-02
      0.00000000000000E+00   0.00000000000000E+00   0.00000000000000E+00   0.00000000000000E+00  -2.94658378993251E-17
     -4.93233452582764E-20  -2.95151612445834E-17   3.73229102587826E-16   4.36393360355042E-02   4.36393360355042E-02
      0.00000000000000E+00   0.00000000000000E+00   2.74940380061059E-17   5.14059344053506E-20   2.75454439405113E-17
      4.61332117497046E-16  -5.00000000000000E-01  -5.00000000000000E-01   0.00000000000000E+00   0.00000000000000E+00
      0.00000000000000E+00   0.00000000000000E+00   0.00000000000000E+00  -3.56646932882501E-16
      5.26853862317371E-02
      0.00000000000000E+00   0.00000000000000E+00   0.00000000000000E+00   0.00000000000000E+00  -3.04123258168783E-17
     -5.88630183957720E-20  -3.04711888352740E-17   3.72925223992868E-16   5.26853862317371E-02   5.26853862317371E-02
      0.00000000000000E+00   0.00000000000000E+00   3.34117108025956E-17   5.69357949866811E-20   3.34686465975823E-17
      4.62884726553626E-16  -5.00000000000000E-01  -5.00000000000000E-01   0.00000000000000E+00   0.00000000000000E+00
      0.00000000000000E+00   0.00000000000000E+00   0.00000000000000E+00  -3.58969860513339E-16
      6.34200324646000E-02
      0.00000000000000E+00   0.00000000000000E+00   0.00000000000000E+00   0.00000000000000E+00  -3.51622118663499E-17
     -6.97926583008157E-20  -3.52320045246507E-17   3.72598581148977E-16   6.34200324646000E-02   6.34200324646000E-02
      0.00000000000000E+00   0.00000000000000E+00   3.79260208676026E-17   6.19239141418983E-20   3.79879447817445E-17
      4.64749646198885E-16  -5.00000000000000E-01  -5.00000000000000E-01   0.00000000000000E+00   0.00000000000000E+00
      0.00000000000000E+00   0.00000000000000E+00   0.00000000000000E+00  -3.61525135463496E-16
      7.60153507111592E-02
      0.00000000000000E+00   0.00000000000000E+00   0.00000000000000E+00   0.00000000000000E+00  -4.26499118322208E-17
     -8.21179177583866E-20  -4.27320297499792E-17   3.72253456687251E-16   7.60153507111592E-02   7.60153507111592E-02
      0.00000000000000E+00   0.00000000000000E+00   4.37630033936747E-17   6.60914398316100E-20   4.38290948335063E-17
      4.66961367529422E-16  -5.00000000000000E-01  -5.00000000000000E-01   0.00000000000000E+00   0.00000000000000E+00
      0.00000000000000E+00   0.00000000000000E+00   0.00000000000000E+00  -3.64297241901804E-16
      9.07938574537886E-02
      0.00000000000000E+00   0.00000000000000E+00   0.00000000000000E+00   0.00000000000000E+00  -5.00113712816471E-17
     -9.60129687234471E-20  -5.01073842503706E-17   3.71889101189331E-16   9.07938574537886E-02   9.07938574537886E-02
      0.00000000000000E+00   0.00000000000000E+00   4.79284827537836E-17   6.93189571810724E-20   4.79978017109647E-17
      4.69578972999917E-16  -5.00000000000000E-01  -5.00000000000000E-01   0.00000000000000E+00   0.00000000000000E+00
      0.00000000000000E+00   0.00000000000000E+00   0.00000000000000E+00  -3.67308765087938E-16
      1.08133972031807E-01
      0.00000000000000E+00   0.00000000000000E+00   0.00000000000000E+00   0.00000000000000E+00  -5.65364493194259E-17
     -1.11792586039105E-19  -5.66482419054650E-17   3.71502008865675E-16   1.08133972031807E-01   1.08133972031807E-01
      0.00000000000000E+00   0.00000000000000E+00   5.76403371963324E-17   7.16058372461882E-20   5.77119430335786E-17
      4.72668894423541E-16  -5.00000000000000E-01  -5.00000000000000E-01   0.00000000000000E+00   0.00000000000000E+00
      0.00000000000000E+00   0.00000000000000E+00   0.00000000000000E+00  -3.70600985715523E-16
      1.28479706470016E-01
      0.00000000000000E+00   0.00000000000000E+00   0.00000000000000E+00   0.00000000000000E+00  -6.18839571427585E-17
     -1.30095934712452E-19  -6.20140530774710E-17   3.71083446891860E-16   1.28479706470016E-01   1.28479706470016E-01
      0.00000000000000E+00   0.00000000000000E+00   6.50922345796971E-17   7.30686867892747E-20   6.51653032664864E-17
      4.76304671777374E-16  -5.00000000000000E-01  -5.00000000000000E-01   0.00000000000000E+00   0.00000000000000E+00
      0.00000000000000E+00   0.00000000000000E+00   0.00000000000000E+00  -3.74248196896096E-16
      1.52352034877513E-01
      0.00000000000000E+00   0.00000000000000E+00   0.00000000000000E+00   0.00000000000000E+00  -7.00465095929291E-17
     -1.52367105007376E-19  -7.01988766979365E-17   3.70613712042657E-16   1.52352034877513E-01   1.52352034877513E-01
      0.00000000000000E+00   0.00000000000000E+00   7.23679761008958E-17   7.39054961542661E-20   7.24418815970501E-17
      4.80564792853035E-16  -5.00000000000000E-01  -5.00000000000000E-01   0.00000000000000E+00   0.00000000000000E+00
      0.00000000000000E+00   0.00000000000000E+00   0.00000000000000E+00  -3.78390483285635E-16
      1.80362233542311E-01
      0.00000000000000E+00   0.00000000000000E+00   0.00000000000000E+00   0.00000000000000E+00  -8.51005722574376E-17
     -1.82241983299897E-19  -8.52828142407375E-17   3.70047796795211E-16   1.80362233542311E-01   1.80362233542311E-01
      0.00000000000000E+00   0.00000000000000E+00   8.52767335602636E-17   7.43376101294047E-20   8.53510711703930E-17
      4.85525266239334E-16  -5.00000000000000E-01  -5.00000000000000E-01   0.00000000000000E+00   0.00000000000000E+00
      0.00000000000000E+00   0.00000000000000E+00   0.00000000000000E+00  -3.83314882263852E-16
      2.13227533309007E-01
      0.00000000000000E+00   0.00000000000000E+00   0.00000000000000E+00   0.00000000000000E+00  -9.96280020245884E-17
     -2.29789905773779E-19  -9.98577919303621E-17   3.69281667243619E-16   2.13227533309007E-01   2.13227533309007E-01
      0.00000000000000E+00   0.00000000000000E+00   9.89295700815568E-17   7.45526926690074E-20   9.90041227742258E-17
      4.91240593146174E-16  -5.00000000000000E-01  -5.00000000000000E-01   0.00000000000000E+00   0.00000000000000E+00
      0.00000000000000E+00   0.00000000000000E+00   0.00000000000000E+00  -3.89644804193163E-16
      2.51351281038374E-01
      0.00000000000000E+00   0.00000000000000E+00   0.00000000000000E+00   0.00000000000000E+00  -1.27643932484753E-16
     -3.24307309327754E-19  -1.27968239794081E-16   3.68099814009963E-16   2.51351281038374E-01   2.51351281038374E-01
      0.00000000000000E+00   0.00000000000000E+00   1.30093826396029E-16   7.46725853807744E-20   1.30168498981410E-16
      4.97633919187414E-16  -5.00000000000000E-01  -5.00000000000000E-01   0.00000000000000E+00   0.00000000000000E+00
      0.00000000000000E+00   0.00000000000000E+00   0.00000000000000E+00  -3.98600950661746E-16
      2.95574828404440E-01
      0.00000000000000E+00   0.00000000000000E+00   0.00000000000000E+00   0.00000000000000E+00  -1.88344491511284E-16
     -5.65394472154863E-19  -1.88909885983439E-16   3.66088053820677E-16   2.95574828404440E-01   2.95574828404440E-01
      0.00000000000000E+00   0.00000000000000E+00   1.86837537440341E-16   7.47595161215606E-20   1.86912296956463E-16
      5.04593962019219E-16  -5.00000000000000E-01  -5.00000000000000E-01   0.00000000000000E+00   0.00000000000000E+00
      0.00000000000000E+00   0.00000000000000E+00   0.00000000000000E+00  -4.12489233267998E-16
      3.46874143349076E-01
      0.00000000000000E+00   0.00000000000000E+00   0.00000000000000E+00   0.00000000000000E+00  -3.05360248611282E-16
     -1.35362020603699E-18  -3.06713868817319E-16   3.62671151720656E-16   3.46874143349076E-01   3.46874143349076E-01
      0.00000000000000E+00   0.00000000000000E+00   3.02485691564150E-16   7.48359562682064E-20   3.02560527520418E-16
      5.11965516620129E-16  -5.00000000000000E-01  -5.00000000000000E-01   0.00000000000000E+00   0.00000000000000E+00
      0.00000000000000E+00   0.00000000000000E+00   0.00000000000000E+00  -4.34287823493682E-16
      4.05697357818926E-01
      0.00000000000000E+00   0.00000000000000E+00   0.00000000000000E+00   0.00000000000000E+00  -5.17044885729441E-16
     -4.41114669721926E-18  -5.21456032426661E-16   3.57607199691903E-16   4.05697357818926E-01   4.05697357818926E-01
      0.00000000000000E+00   0.00000000000000E+00   5.19526273106997E-16   7.49102883875542E-20   5.19601183395385E-16
      5.19770109656358E-16  -5.00000000000000E-01  -5.00000000000000E-01   0.00000000000000E+00   0.00000000000000E+00
      0.00000000000000E+00   0.00000000000000E+00   0.00000000000000E+00  -4.64559285430124E-16
      4.72363667551422E-01
      0.00000000000000E+00   0.00000000000000E+00   0.00000000000000E+00   0.00000000000000E+00  -8.03488710149872E-16
     -1.34004123622016E-17  -8.16889122512073E-16   3.52365824316101E-16   4.72363667551422E-01   4.72363667551422E-01
      0.00000000000000E+00   0.00000000000000E+00   8.18890551540600E-16   7.50026416400482E-20   8.18965554182240E-16
      5.29067619773162E-16  -5.00000000000000E-01  -5.00000000000000E-01   0.00000000000000E+00   0.00000000000000E+00
      0.00000000000000E+00   0.00000000000000E+00   0.00000000000000E+00  -4.94792927615827E-16
      5.47029934451818E-01
      0.00000000000000E+00   0.00000000000000E+00   0.00000000000000E+00   0.00000000000000E+00  -1.04880027458917E-15
     -2.40804494566867E-17  -1.07288072404585E-15   3.49290433533744E-16   5.47029934451818E-01   5.47029934451818E-01
      0.00000000000000E+00   0.00000000000000E+00   1.07237402191764E-15   7.51406807067803E-20   1.07244916259835E-15
      5.41168426530522E-16  -5.00000000000000E-01  -5.00000000000000E-01   0.00000000000000E+00   0.00000000000000E+00
      0.00000000000000E+00   0.00000000000000E+00   0.00000000000000E+00  -5.13912708883810E-16
      6.29660603154923E-01
      0.00000000000000E+00   0.00000000000000E+00   0.00000000000000E+00   0.00000000000000E+00  -1.19506565040613E-15
     -2.87150978127624E-17  -1.22378074821890E-15   3.48102143810654E-16   6.29660603154923E-01   6.29660603154923E-01
      0.00000000000000E+00   0.00000000000000E+00   1.22413632425533E-15   7.53271237768326E-20   1.22421165137911E-15
      5.55678981534780E-16  -5.00000000000000E-01  -5.00000000000000E-01   0.00000000000000E+00   0.00000000000000E+00
      0.00000000000000E+00   0.00000000000000E+00   0.00000000000000E+00  -5.24280836719430E-16
      7.21105209853025E-01
      0.00000000000000E+00   0.00000000000000E+00   0.00000000000000E+00   0.00000000000000E+00  -1.32302196281034E-15
     -2.97244875199795E-17  -1.35274645033032E-15   3.47505636313451E-16   7.21105209853025E-01   7.21105209853025E-01
      0.00000000000000E+00   0.00000000000000E+00   1.35656414948332E-15   7.55293101273747E-20   1.35663967879345E-15
      5.71916891445347E-16  -5.00000000000000E-01  -5.00000000000000E-01   0.00000000000000E+00   0.00000000000000E+00
      0.00000000000000E+00   0.00000000000000E+00   0.00000000000000E+00  -5.32271609697431E-16
      8.23523169354900E-01
      0.00000000000000E+00   0.00000000000000E+00   0.00000000000000E+00   0.00000000000000E+00  -1.51023038747601E-15
     -2.97125304630724E-17  -1.53994291793908E-15   3.46927618341624E-16   8.23523169354900E-01   8.23523169354900E-01
      0.00000000000000E+00   0.00000000000000E+00   1.54439604701379E-15   7.57425413291907E-20   1.54447178955512E-15
      5.89907833154943E-16  -5.00000000000000E-01  -5.00000000000000E-01   0.00000000000000E+00   0.00000000000000E+00
      0.00000000000000E+00   0.00000000000000E+00   0.00000000000000E+00  -5.40596907401422E-16
      9.39596856790358E-01
      0.00000000000000E+00   0.00000000000000E+00   0.00000000000000E+00   0.00000000000000E+00  -1.85649867351249E-15
     -2.93570931695333E-17  -1.88585576668202E-15   3.46187315641640E-16   9.39596856790358E-01   9.39596856790358E-01
      0.00000000000000E+00   0.00000000000000E+00   1.88534111872376E-15   7.59708483441940E-20   1.88541708957211E-15
      6.09984850952016E-16  -5.00000000000000E-01  -5.00000000000000E-01   0.00000000000000E+00   0.00000000000000E+00
      0.00000000000000E+00   0.00000000000000E+00   0.00000000000000E+00  -5.50049780465608E-16
      1.00000000000000E+00
      0.00000000000000E+00   0.00000000000000E+00   0.00000000000000E+00   0.00000000000000E+00  -2.13224761354013E-15
     -2.90818838569602E-17  -2.16132949739709E-15   3.45755188469312E-16   1.00000000000000E+00   1.00000000000000E+00
      0.00000000000000E+00   0.00000000000000E+00   2.15946455726079E-15   7.60848031297344E-20   2.15954064206392E-15
      6.20308135699437E-16  -5.00000000000000E-01  -5.00000000000000E-01   0.00000000000000E+00   0.00000000000000E+00
      0.00000000000000E+00   0.00000000000000E+00   0.00000000000000E+00  -5.54984554467288E-16
      0.00000000000000E+00
      0.00000000000000E+00   0.00000000000000E+00   0.00000000000000E+00   0.00000000000000E+00  -2.13073858041909E-15
     -2.90819670919539E-17  -2.15982054751104E-15   3.45755175472759E-16   1.00000000000000E+00   1.00000000000000E+00
      0.00000000000000E+00   0.00000000000000E+00   2.15828904746104E-15   7.60848030332843E-20   2.15836513226407E-15
      6.20308130056517E-16  -5.00000000000000E-01  -5.00000000000000E-01   0.00000000000000E+00   0.00000000000000E+00
      0.00000000000000E+00   0.00000000000000E+00   0.00000000000000E+00  -5.54984617059374E-16
      1.00000000000000E-03
      0.00000000000000E+00   0.00000000000000E+00   0.00000000000000E+00   0.00000000000000E+00  -2.12316828311537E-15
     -2.85725019310444E-17  -2.15174078504641E-15   3.45726262549961E-16   1.00000000000000E+00   1.00000000000000E+00
      0.00000000000000E+00   0.00000000000000E+00   2.15264970751134E-15   7.60846931061796E-20   2.15272579220445E-15
      6.20171942929727E-16  -4.98000000000000E-01  -4.98000000000000E-01   0.00000000000000E+00   0.00000000000000E+00
      0.00000000000000E+00   0.00000000000000E+00   0.00000000000000E+00  -5.52627631539562E-16
      2.13333333333333E-03
      0.00000000000000E+00   0.00000000000000E+00   0.00000000000000E+00   0.00000000000000E+00  -2.11909357248440E-15
     -2.79994858707589E-17  -2.14709305835516E-15   3.45693823196706E-16   1.00000000000000E+00   1.00000000000000E+00
      0.00000000000000E+00   0.00000000000000E+00   2.14639442024620E-15   7.60845716995794E-20   2.14647050481790E-15
      6.20017573780779E-16  -4.95733333333333E-01  -4.95733333333333E-01   0.00000000000000E+00   0.00000000000000E+00
      0.00000000000000E+00   0.00000000000000E+00   0.00000000000000E+00  -5.49954277344494E-16
      3.47822222222222E-03
      0.00000000000000E+00   0.00000000000000E+00   0.00000000000000E+00   0.00000000000000E+00  -2.11123240704977E-15
     -2.73254211410807E-17  -2.13855782819085E-15   3.45655832414061E-16   1.00000000000000E+00   1.00000000000000E+00
      0.00000000000000E+00   0.00000000000000E+00   2.13436291389596E-15   7.60844324057473E-20   2.13443899832836E-15
      6.19834386881735E-16  -4.93043555555556E-01  -4.93043555555556E-01   0.00000000000000E+00   0.00000000000000E+00
      0.00000000000000E+00   0.00000000000000E+00   0.00000000000000E+00  -5.46778723083751E-16
      5.07415703703704E-03
      0.00000000000000E+00   0.00000000000000E+00   0.00000000000000E+00   0.00000000000000E+00  -2.10120055371338E-15
     -2.65344680884877E-17  -2.12773502180187E-15   3.45611411879443E-16   1.00000000000000E+00   1.00000000000000E+00
      0.00000000000000E+00   0.00000000000000E+00   2.12374723824395E-15   7.60842735055196E-20   2.12382332251746E-15
      6.19616994789343E-16  -4.89851685925926E-01  -4.89851685925926E-01   0.00000000000000E+00   0.00000000000000E+00
      0.00000000000000E+00   0.00000000000000E+00   0.00000000000000E+00  -5.43006115218368E-16
      6.96799968395062E-03
      0.00000000000000E+00   0.00000000000000E+00   0.00000000000000E+00   0.00000000000000E+00  -2.09154704563429E-15
     -2.56093057046854E-17  -2.11715635133898E-15   3.45559568438253E-16   1.00000000000000E+00   1.00000000000000E+00
      0.00000000000000E+00   0.00000000000000E+00   2.11394939708112E-15   7.60840935160018E-20   2.11402548117463E-15
      6.19359002546100E-16  -4.86064000632099E-01  -4.86064000632099E-01   0.00000000000000E+00   0.00000000000000E+00
      0.00000000000000E+00   0.00000000000000E+00   0.00000000000000E+00  -5.38523491028107E-16
      9.21535962495473E-03
      0.00000000000000E+00   0.00000000000000E+00   0.00000000000000E+00   0.00000000000000E+00  -2.07522151698409E-15
     -2.45316531791263E-17  -2.09975317016321E-15   3.45499167884495E-16   1.00000000000000E+00   1.00000000000000E+00
      0.00000000000000E+00   0.00000000000000E+00   2.09672734209363E-15   7.60838912775229E-20   2.09680342598491E-15
      6.19052812482834E-16  -4.81569280750091E-01  -4.81569280750091E-01   0.00000000000000E+00   0.00000000000000E+00
      0.00000000000000E+00   0.00000000000000E+00   0.00000000000000E+00  -5.33196342580081E-16
      1.18822267549463E-02
      0.00000000000000E+00   0.00000000000000E+00   0.00000000000000E+00   0.00000000000000E+00  -2.05757516190032E-15
     -2.32834127679874E-17  -2.08085857466830E-15   3.45428859802011E-16   1.00000000000000E+00   1.00000000000000E+00
      0.00000000000000E+00   0.00000000000000E+00   2.08029758115583E-15   7.60836657516550E-20   2.08037366482158E-15
      6.18689373136491E-16  -4.76235546490107E-01  -4.76235546490107E-01   0.00000000000000E+00   0.00000000000000E+00
      0.00000000000000E+00   0.00000000000000E+00   0.00000000000000E+00  -5.26864721773841E-16
      1.50469090825362E-02
      0.00000000000000E+00   0.00000000000000E+00   0.00000000000000E+00   0.00000000000000E+00  -2.03907436442028E-15
     -2.18485758516790E-17  -2.06092294027196E-15   3.45346937698108E-16   1.00000000000000E+00   1.00000000000000E+00
      0.00000000000000E+00   0.00000000000000E+00   2.06214740305969E-15   7.60834154207697E-20   2.06222348647512E-15
      6.18257858671145E-16  -4.69906181834927E-01  -4.69906181834927E-01   0.00000000000000E+00   0.00000000000000E+00
      0.00000000000000E+00   0.00000000000000E+00   0.00000000000000E+00  -5.19338830694329E-16
      1.88023321112763E-02
      0.00000000000000E+00   0.00000000000000E+00   0.00000000000000E+00   0.00000000000000E+00  -2.01617598444776E-15
     -2.02168359927159E-17  -2.03639282044048E-15   3.45250934945421E-16   1.00000000000000E+00   1.00000000000000E+00
      0.00000000000000E+00   0.00000000000000E+00   2.03697262904585E-15   7.60831357765239E-20   2.03704871218163E-15
      6.17745181956761E-16  -4.62395335777447E-01  -4.62395335777447E-01   0.00000000000000E+00   0.00000000000000E+00
      0.00000000000000E+00   0.00000000000000E+00   0.00000000000000E+00  -5.10394941586727E-16
      2.32086951316647E-02
      0.00000000000000E+00   0.00000000000000E+00   0.00000000000000E+00   0.00000000000000E+00  -1.98783708519856E-15
     -1.84073927567646E-17  -2.00624447795533E-15   3.45138426188756E-16   1.00000000000000E+00   1.00000000000000E+00
      0.00000000000000E+00   0.00000000000000E+00   2.00903572881302E-15   7.60828197934014E-20   2.00911181163281E-15
      6.17142268096839E-16  -4.53582609736671E-01  -4.53582609736671E-01   0.00000000000000E+00   0.00000000000000E+00
      0.00000000000000E+00   0.00000000000000E+00   0.00000000000000E+00  -4.99890019614030E-16
      2.83788277422538E-02
      0.00000000000000E+00   0.00000000000000E+00   0.00000000000000E+00   0.00000000000000E+00  -1.95809721126309E-15
     -1.64394149961904E-17  -1.97453662625928E-15   3.45003286914125E-16   1.00000000000000E+00   1.00000000000000E+00
      0.00000000000000E+00   0.00000000000000E+00   1.97231472571387E-15   7.60824396022556E-20   1.97239080815347E-15
      6.16431669856254E-16  -4.43242344515492E-01  -4.43242344515492E-01   0.00000000000000E+00   0.00000000000000E+00
      0.00000000000000E+00   0.00000000000000E+00   0.00000000000000E+00  -4.87566227038534E-16
      3.43761815705370E-02
      0.00000000000000E+00   0.00000000000000E+00   0.00000000000000E+00   0.00000000000000E+00  -1.92607834891244E-15
     -1.43761942711829E-17  -1.94045454318362E-15   3.44836521326737E-16   1.00000000000000E+00   1.00000000000000E+00
      0.00000000000000E+00   0.00000000000000E+00   1.93742978504227E-15   7.60819392844881E-20   1.93750586698155E-15
      6.15600646668532E-16  -4.31247636858926E-01  -4.31247636858926E-01   0.00000000000000E+00   0.00000000000000E+00
      0.00000000000000E+00   0.00000000000000E+00   0.00000000000000E+00  -4.73303929635329E-16
      4.13331120113456E-02
      0.00000000000000E+00   0.00000000000000E+00   0.00000000000000E+00   0.00000000000000E+00  -1.89042759739352E-15
     -1.22842113438288E-17  -1.90271180873735E-15   3.44619260077985E-16   1.00000000000000E+00   1.00000000000000E+00