DF-ISE text

Info {
  version   = 1.0
  type      = xyplot
  datasets  = [
    "time"
    "S OuterVoltage" "S InnerVoltage" "S QuasiFermiPotential" "S DisplacementCurrent" "S eCurrent"
    "S hCurrent" "S TotalCurrent" "S Charge" "D OuterVoltage" "D InnerVoltage"
    "D QuasiFermiPotential" "D DisplacementCurrent" "D eCurrent" "D hCurrent" "D TotalCurrent"
    "D Charge" "G OuterVoltage" "G InnerVoltage" "G QuasiFermiPotential" "G DisplacementCurrent"
    "G eCurrent" "G hCurrent" "G TotalCurrent" "G Charge" ]
  functions = [
    Time
    OuterVoltage InnerVoltage QuasiFermiPotential DisplacementCurrent eCurrent
    hCurrent TotalCurrent Charge OuterVoltage InnerVoltage
    QuasiFermiPotential DisplacementCurrent eCurrent hCurrent TotalCurrent
    Charge OuterVoltage InnerVoltage QuasiFermiPotential DisplacementCurrent
    eCurrent hCurrent TotalCurrent Charge ]
}

Data {
      0.00000000000000E+00
      0.00000000000000E+00   0.00000000000000E+00   0.00000000000000E+00   0.00000000000000E+00  -1.76975693980040E-19
      6.04865237499726E-36  -1.76975693980040E-19   4.15233010640727E-16   0.00000000000000E+00   0.00000000000000E+00
      0.00000000000000E+00   0.00000000000000E+00   1.44486439716165E-26   2.88500448753232E-37   1.44486439719050E-26
      4.83567334070691E-16  -5.00000000000000E-01  -5.00000000000000E-01   0.00000000000000E+00   0.00000000000000E+00
      0.00000000000000E+00   0.00000000000000E+00   0.00000000000000E+00  -2.58427989005336E-16
      0.00000000000000E+00
      0.00000000000000E+00   0.00000000000000E+00   0.00000000000000E+00   0.00000000000000E+00  -7.07902537801842E-19
      1.55427014728458E-32  -7.07902537801826E-19   4.15233010639762E-16   0.00000000000000E+00   0.00000000000000E+00
      0.00000000000000E+00   0.00000000000000E+00   1.57472354363346E-18   1.55400119913643E-32   1.57472354363348E-18
      4.83567334069764E-16  -5.00000000000000E-01  -5.00000000000000E-01   0.00000000000000E+00   0.00000000000000E+00
      0.00000000000000E+00   0.00000000000000E+00   0.00000000000000E+00  -2.58427989005381E-16
      1.00000000000000E-03
      0.00000000000000E+00   0.00000000000000E+00   0.00000000000000E+00   0.00000000000000E+00   7.36975540256233E-19
     -1.76340353395203E-21   7.35212136722281E-19   4.15097045991438E-16   1.00000000000000E-03   1.00000000000000E-03
      0.00000000000000E+00   0.00000000000000E+00   1.32309495764515E-18   1.11694989435135E-21   1.32421190753951E-18
      4.83681845825632E-16  -5.00000000000000E-01  -5.00000000000000E-01   0.00000000000000E+00   0.00000000000000E+00
      0.00000000000000E+00   0.00000000000000E+00   0.00000000000000E+00  -2.59138441655668E-16
      2.17333333333333E-03
      0.00000000000000E+00   0.00000000000000E+00   0.00000000000000E+00   0.00000000000000E+00  -2.09464057910435E-18
     -3.89513715006698E-21  -2.09853571625442E-18   4.14936729264306E-16   2.17333333333333E-03   2.17333333333333E-03
      0.00000000000000E+00   0.00000000000000E+00   3.18610722601697E-18   2.39766933824424E-21   3.18850489535522E-18
      4.83815707720582E-16  -5.00000000000000E-01  -5.00000000000000E-01   0.00000000000000E+00   0.00000000000000E+00
      0.00000000000000E+00   0.00000000000000E+00   0.00000000000000E+00  -2.59975404793810E-16
      3.56568888888889E-03
      0.00000000000000E+00   0.00000000000000E+00   0.00000000000000E+00   0.00000000000000E+00  -3.72429862527775E-18
     -6.51582587776706E-21  -3.73081445115552E-18   4.14745384341668E-16   3.56568888888889E-03   3.56568888888889E-03
      0.00000000000000E+00   0.00000000000000E+00   2.44421024238218E-18   3.87681674196084E-21   2.44808705912414E-18
      4.83973859022597E-16  -5.00000000000000E-01  -5.00000000000000E-01   0.00000000000000E+00   0.00000000000000E+00
      0.00000000000000E+00   0.00000000000000E+00   0.00000000000000E+00  -2.60973318932362E-16
      5.21795081481481E-03
      0.00000000000000E+00   0.00000000000000E+00   0.00000000000000E+00   0.00000000000000E+00  -3.98266358511486E-18
     -9.75951458971417E-21  -3.99242309970457E-18   4.14516764828823E-16   5.21795081481481E-03   5.21795081481481E-03
      0.00000000000000E+00   0.00000000000000E+00   3.64768170200650E-18   5.57670880347973E-21   3.65325841080998E-18
      4.84160549501006E-16  -5.00000000000000E-01  -5.00000000000000E-01   0.00000000000000E+00   0.00000000000000E+00
      0.00000000000000E+00   0.00000000000000E+00   0.00000000000000E+00  -2.62164157850334E-16
      7.17863496691358E-03
      0.00000000000000E+00   0.00000000000000E+00   0.00000000000000E+00   0.00000000000000E+00  -5.53640183338856E-18
     -1.38069737137472E-20  -5.55020880710231E-18   4.14243270766062E-16   7.17863496691358E-03   7.17863496691358E-03
      0.00000000000000E+00   0.00000000000000E+00   9.07124242283594E-18   7.51895711804484E-21   9.07876137995399E-18
      4.84380707349055E-16  -5.00000000000000E-01  -5.00000000000000E-01   0.00000000000000E+00   0.00000000000000E+00
      0.00000000000000E+00   0.00000000000000E+00   0.00000000000000E+00  -2.63586648950534E-16
      9.50531349407078E-03
      0.00000000000000E+00   0.00000000000000E+00   0.00000000000000E+00   0.00000000000000E+00  -1.08826192509083E-17
     -1.89065881161638E-20  -1.09015258390244E-17   4.13915622805347E-16   9.50531349407078E-03   9.50531349407078E-03
      0.00000000000000E+00   0.00000000000000E+00   8.22768762356013E-18   9.72305388237402E-21   8.23741067744250E-18
      4.84640023076441E-16  -5.00000000000000E-01  -5.00000000000000E-01   0.00000000000000E+00   0.00000000000000E+00
      0.00000000000000E+00   0.00000000000000E+00   0.00000000000000E+00  -2.65287829083022E-16
      1.22663053462973E-02
      0.00000000000000E+00   0.00000000000000E+00   0.00000000000000E+00   0.00000000000000E+00  -1.50783149811730E-17
     -2.54070125203604E-20  -1.51037219936933E-17   4.13522442038050E-16   1.22663053462973E-02   1.22663053462973E-02
      0.00000000000000E+00   0.00000000000000E+00   1.45785543862992E-17   1.22044676213222E-20   1.45907588539206E-17
      4.84945030209599E-16  -5.00000000000000E-01  -5.00000000000000E-01   0.00000000000000E+00   0.00000000000000E+00
      0.00000000000000E+00   0.00000000000000E+00   0.00000000000000E+00  -2.67325023017649E-16
      1.55426823442728E-02
      0.00000000000000E+00   0.00000000000000E+00   0.00000000000000E+00   0.00000000000000E+00  -1.70840320888308E-17
     -3.38093352076869E-20  -1.71178414240385E-17   4.13049721652942E-16   1.55426823442728E-02   1.55426823442728E-02
      0.00000000000000E+00   0.00000000000000E+00   1.72877383446388E-17   1.49724055419020E-20   1.73027107501807E-17
      4.85303187472267E-16  -5.00000000000000E-01  -5.00000000000000E-01   0.00000000000000E+00   0.00000000000000E+00
      0.00000000000000E+00   0.00000000000000E+00   0.00000000000000E+00  -2.69768288090158E-16
      1.94306497152037E-02
      0.00000000000000E+00   0.00000000000000E+00   0.00000000000000E+00   0.00000000000000E+00  -1.95874500457629E-17
     -4.48533145104278E-20  -1.96323033602733E-17   4.12480143656640E-16   1.94306497152037E-02   1.94306497152037E-02
      0.00000000000000E+00   0.00000000000000E+00   2.03784297912801E-17   1.80271864239496E-20   2.03964569777041E-17
      4.85722948292863E-16  -5.00000000000000E-01  -5.00000000000000E-01   0.00000000000000E+00   0.00000000000000E+00
      0.00000000000000E+00   0.00000000000000E+00   0.00000000000000E+00  -2.72703514729055E-16
      2.40443709953751E-02
      0.00000000000000E+00   0.00000000000000E+00   0.00000000000000E+00   0.00000000000000E+00  -2.63453230609163E-17
     -5.96647005219520E-20  -2.64049877614383E-17   4.11792198318543E-16   2.40443709953751E-02   2.40443709953751E-02
      0.00000000000000E+00   0.00000000000000E+00   2.70050337470197E-17   2.13574638230334E-20   2.70263912108428E-17
      4.86213812575158E-16  -5.00000000000000E-01  -5.00000000000000E-01   0.00000000000000E+00   0.00000000000000E+00
      0.00000000000000E+00   0.00000000000000E+00   0.00000000000000E+00  -2.76236327567279E-16
      2.94578039641095E-02
      0.00000000000000E+00   0.00000000000000E+00   0.00000000000000E+00   0.00000000000000E+00  -3.24524455624943E-17
     -7.97648005018032E-20  -3.25322103629961E-17   4.10968683162017E-16   2.94578039641095E-02   2.94578039641095E-02
      0.00000000000000E+00   0.00000000000000E+00   3.24300709302693E-17   2.49009649317864E-20   3.24549718952011E-17
      4.86780097914049E-16  -5.00000000000000E-01  -5.00000000000000E-01   0.00000000000000E+00   0.00000000000000E+00
      0.00000000000000E+00   0.00000000000000E+00   0.00000000000000E+00  -2.80447860571276E-16
      3.58095653140912E-02
      0.00000000000000E+00   0.00000000000000E+00   0.00000000000000E+00   0.00000000000000E+00  -3.83176584795120E-17
     -1.07780325295557E-19  -3.84254388048075E-17   4.09980579484481E-16   3.58095653140912E-02   3.58095653140912E-02
      0.00000000000000E+00   0.00000000000000E+00   3.99729078230849E-17   2.86198610435783E-20   4.00015276841285E-17
      4.87431887248994E-16  -5.00000000000000E-01  -5.00000000000000E-01   0.00000000000000E+00   0.00000000000000E+00
      0.00000000000000E+00   0.00000000000000E+00   0.00000000000000E+00  -2.85476547571721E-16
      4.32622986314031E-02
      0.00000000000000E+00   0.00000000000000E+00   0.00000000000000E+00   0.00000000000000E+00  -4.68798016736196E-17
     -1.48075098299079E-19  -4.70278767719187E-17   4.08792529163584E-16   4.32622986314031E-02   4.32622986314031E-02
      0.00000000000000E+00   0.00000000000000E+00   4.68387102561498E-17   3.24675750722033E-20   4.68711778312220E-17
      4.88180533682202E-16  -5.00000000000000E-01  -5.00000000000000E-01   0.00000000000000E+00   0.00000000000000E+00
      0.00000000000000E+00   0.00000000000000E+00   0.00000000000000E+00  -2.91488232097986E-16
      5.20068390570490E-02
      0.00000000000000E+00   0.00000000000000E+00   0.00000000000000E+00   0.00000000000000E+00  -5.95213851030096E-17
     -2.08202708449693E-19  -5.97295878114593E-17   4.07361894651691E-16   5.20068390570490E-02   5.20068390570490E-02
      0.00000000000000E+00   0.00000000000000E+00   5.89374525602520E-17   3.63935334683296E-20   5.89738460937203E-17
      4.89039200857468E-16  -5.00000000000000E-01  -5.00000000000000E-01   0.00000000000000E+00   0.00000000000000E+00
      0.00000000000000E+00   0.00000000000000E+00   0.00000000000000E+00  -2.98678705765454E-16
      6.22670998231402E-02
      0.00000000000000E+00   0.00000000000000E+00   0.00000000000000E+00   0.00000000000000E+00  -7.42375187199407E-17
     -3.01827418986673E-19  -7.45393461389274E-17   4.05638318805029E-16   6.22670998231402E-02   6.22670998231402E-02
      0.00000000000000E+00   0.00000000000000E+00   7.08815780634372E-17   4.03516188809210E-20   7.09219296823181E-17
      4.90024035560747E-16  -5.00000000000000E-01  -5.00000000000000E-01   0.00000000000000E+00   0.00000000000000E+00
      0.00000000000000E+00   0.00000000000000E+00   0.00000000000000E+00  -3.07272870795445E-16
      7.41690023118060E-02
      0.00000000000000E+00   0.00000000000000E+00   0.00000000000000E+00   0.00000000000000E+00  -8.72976920522008E-17
     -4.52753157685471E-19  -8.77504452098863E-17   4.03588594949671E-16   7.41690023118060E-02   7.41690023118060E-02
      0.00000000000000E+00   0.00000000000000E+00   8.97617072529871E-17   4.42719320863219E-20   8.98059791850734E-17
      4.91143919784032E-16  -5.00000000000000E-01  -5.00000000000000E-01   0.00000000000000E+00   0.00000000000000E+00
      0.00000000000000E+00   0.00000000000000E+00   0.00000000000000E+00  -3.17398492063837E-16
      8.79752091986583E-02
      0.00000000000000E+00   0.00000000000000E+00   0.00000000000000E+00   0.00000000000000E+00  -1.12112888225830E-16
     -7.08110795079710E-19  -1.12820999020909E-16   4.01161743079694E-16   8.79752091986583E-02   8.79752091986583E-02
      0.00000000000000E+00   0.00000000000000E+00   1.13481119410308E-16   4.81633443654507E-20   1.13529282754674E-16
      4.92426525219616E-16  -5.00000000000000E-01  -5.00000000000000E-01   0.00000000000000E+00   0.00000000000000E+00
      0.00000000000000E+00   0.00000000000000E+00   0.00000000000000E+00  -3.29257681108901E-16
      1.03990409187407E-01
      0.00000000000000E+00   0.00000000000000E+00   0.00000000000000E+00   0.00000000000000E+00  -1.41163257494758E-16
     -1.16208805986990E-18  -1.42325345554627E-16   3.98312725047659E-16   1.03990409187407E-01   1.03990409187407E-01
      0.00000000000000E+00   0.00000000000000E+00   1.38903458377619E-16   5.20726480653908E-20   1.38955531025684E-16
      4.93915067962794E-16  -5.00000000000000E-01  -5.00000000000000E-01   0.00000000000000E+00   0.00000000000000E+00
      0.00000000000000E+00   0.00000000000000E+00   0.00000000000000E+00  -3.43005484811464E-16
      1.22781577174205E-01
      0.00000000000000E+00   0.00000000000000E+00   0.00000000000000E+00   0.00000000000000E+00  -1.78958291938883E-16
     -2.01940313446481E-18  -1.80977695073347E-16   3.94977805223180E-16   1.22781577174205E-01   1.22781577174205E-01
      0.00000000000000E+00   0.00000000000000E+00   1.80732291705931E-16   5.61164607486081E-20   1.80788408166679E-16
      4.95698941230532E-16  -5.00000000000000E-01  -5.00000000000000E-01   0.00000000000000E+00   0.00000000000000E+00
      0.00000000000000E+00   0.00000000000000E+00   0.00000000000000E+00  -3.58865228262623E-16
      1.44579332038892E-01
      0.00000000000000E+00   0.00000000000000E+00   0.00000000000000E+00   0.00000000000000E+00  -2.35231381262667E-16
     -3.67958590917912E-18  -2.38910967171846E-16   3.91205474560604E-16   1.44579332038892E-01   1.44579332038892E-01
      0.00000000000000E+00   0.00000000000000E+00   2.41616417868000E-16   6.02986541459359E-20   2.41676716522146E-16
      4.97871728981888E-16  -5.00000000000000E-01  -5.00000000000000E-01   0.00000000000000E+00   0.00000000000000E+00
      0.00000000000000E+00   0.00000000000000E+00   0.00000000000000E+00  -3.76513957160482E-16
      1.69574090950399E-01
      0.00000000000000E+00   0.00000000000000E+00   0.00000000000000E+00   0.00000000000000E+00  -3.17460846356356E-16
     -6.87656594249932E-18  -3.24337412298855E-16   3.87129660777358E-16   1.69574090950399E-01   1.69574090950399E-01
      0.00000000000000E+00   0.00000000000000E+00   3.22869800780482E-16   6.44955427813174E-20   3.22934296323263E-16
      5.00568271875393E-16  -5.00000000000000E-01  -5.00000000000000E-01   0.00000000000000E+00   0.00000000000000E+00
      0.00000000000000E+00   0.00000000000000E+00   0.00000000000000E+00  -3.95261189278523E-16
      1.98234747835593E-01
      0.00000000000000E+00   0.00000000000000E+00   0.00000000000000E+00   0.00000000000000E+00  -4.29505021105952E-16
     -1.27880537250514E-17  -4.42293074831004E-16   3.82950660364131E-16   1.98234747835593E-01   1.98234747835593E-01
      0.00000000000000E+00   0.00000000000000E+00   4.41064798075788E-16   6.84069003247643E-20   4.41133204976112E-16
      5.04008979028604E-16  -5.00000000000000E-01  -5.00000000000000E-01   0.00000000000000E+00   0.00000000000000E+00
      0.00000000000000E+00   0.00000000000000E+00   0.00000000000000E+00  -4.14201419039448E-16
      2.30716825638814E-01
      0.00000000000000E+00   0.00000000000000E+00   0.00000000000000E+00   0.00000000000000E+00  -5.74530745848228E-16
     -2.24346399363406E-17  -5.96965385784569E-16   3.79049077974894E-16   2.30716825638814E-01   2.30716825638814E-01
      0.00000000000000E+00   0.00000000000000E+00   5.96394611306466E-16   7.15126559249330E-20   5.96466123962391E-16
      5.08431849215037E-16  -5.00000000000000E-01  -5.00000000000000E-01   0.00000000000000E+00   0.00000000000000E+00
      0.00000000000000E+00   0.00000000000000E+00   0.00000000000000E+00  -4.31773176970331E-16
      2.67529847149130E-01
      0.00000000000000E+00   0.00000000000000E+00   0.00000000000000E+00   0.00000000000000E+00  -7.31268102159884E-16
     -3.51799689475156E-17  -7.66448071107399E-16   3.75842661931752E-16   2.67529847149130E-01   2.67529847149130E-01
      0.00000000000000E+00   0.00000000000000E+00   7.63401272726518E-16   7.34641975066246E-20   7.63474736924025E-16
      5.14135638698226E-16  -5.00000000000000E-01  -5.00000000000000E-01   0.00000000000000E+00   0.00000000000000E+00
      0.00000000000000E+00   0.00000000000000E+00   0.00000000000000E+00  -4.46429573499649E-16
      3.08760431240685E-01
      0.00000000000000E+00   0.00000000000000E+00   0.00000000000000E+00   0.00000000000000E+00  -8.67091069859653E-16
     -4.74482045405947E-17  -9.14539274400247E-16   3.73657552948425E-16   3.08760431240685E-01   3.08760431240685E-01
      0.00000000000000E+00   0.00000000000000E+00   9.12642067215097E-16   7.43641204006311E-20   9.12716431335498E-16
      5.21257375286411E-16  -5.00000000000000E-01  -5.00000000000000E-01   0.00000000000000E+00   0.00000000000000E+00
      0.00000000000000E+00   0.00000000000000E+00   0.00000000000000E+00  -4.57054161040274E-16
      3.54938685423226E-01
      0.00000000000000E+00   0.00000000000000E+00   0.00000000000000E+00   0.00000000000000E+00  -9.63038271994167E-16
     -5.60265630594237E-17  -1.01906483505359E-15   3.72404729435979E-16   3.54938685423226E-01   3.54938685423226E-01
      0.00000000000000E+00   0.00000000000000E+00   1.01971110082978E-15   7.47006920902193E-20   1.01978580152187E-15
      5.29797060879977E-16  -5.00000000000000E-01  -5.00000000000000E-01   0.00000000000000E+00   0.00000000000000E+00
      0.00000000000000E+00   0.00000000000000E+00   0.00000000000000E+00  -4.64164471960170E-16
      4.06658330107672E-01
      0.00000000000000E+00   0.00000000000000E+00   0.00000000000000E+00   0.00000000000000E+00  -1.03246746807893E-15
     -6.12817022526272E-17  -1.09374917033156E-15   3.71689396750118E-16   4.06658330107672E-01   4.06658330107672E-01
      0.00000000000000E+00   0.00000000000000E+00   1.09195705768560E-15   7.48592225524172E-20   1.09203191690815E-15
      5.39621449945001E-16  -5.00000000000000E-01  -5.00000000000000E-01   0.00000000000000E+00   0.00000000000000E+00
      0.00000000000000E+00   0.00000000000000E+00   0.00000000000000E+00  -4.69392197540219E-16
      4.65273927416710E-01
      0.00000000000000E+00   0.00000000000000E+00   0.00000000000000E+00   0.00000000000000E+00  -1.10317297304558E-15
     -6.61509143740047E-17  -1.16932388741959E-15   3.71049629100212E-16   4.65273927416710E-01   4.65273927416710E-01
      0.00000000000000E+00   0.00000000000000E+00   1.16661671112366E-15   7.49913818880166E-20   1.16669170250555E-15
      5.50727840174826E-16  -5.00000000000000E-01  -5.00000000000000E-01   0.00000000000000E+00   0.00000000000000E+00
      0.00000000000000E+00   0.00000000000000E+00   0.00000000000000E+00  -4.74608201505531E-16
      5.32486478997742E-01
      0.00000000000000E+00   0.00000000000000E+00   0.00000000000000E+00   0.00000000000000E+00  -1.21600157799301E-15
     -7.41060950267132E-17  -1.29010767301973E-15   3.70110611244387E-16   5.32486478997742E-01   5.32486478997742E-01
      0.00000000000000E+00   0.00000000000000E+00   1.28915642629459E-15   7.51348030436764E-20   1.28923156109763E-15
      5.63230780328051E-16  -5.00000000000000E-01  -5.00000000000000E-01   0.00000000000000E+00   0.00000000000000E+00
      0.00000000000000E+00   0.00000000000000E+00   0.00000000000000E+00  -4.81330862817437E-16
      6.08660704122910E-01
      0.00000000000000E+00   0.00000000000000E+00   0.00000000000000E+00   0.00000000000000E+00  -1.33507802566298E-15
     -8.03883516350167E-17  -1.41546637729800E-15   3.69367954452629E-16   6.08660704122910E-01   6.08660704122910E-01
      0.00000000000000E+00   0.00000000000000E+00   1.41872842791342E-15   7.53087747782157E-20   1.41880373668820E-15
      5.77407497738308E-16  -5.00000000000000E-01  -5.00000000000000E-01   0.00000000000000E+00   0.00000000000000E+00
      0.00000000000000E+00   0.00000000000000E+00   0.00000000000000E+00  -4.87610862201675E-16
      6.93975836263099E-01
      0.00000000000000E+00   0.00000000000000E+00   0.00000000000000E+00   0.00000000000000E+00  -1.47567411790153E-15
     -8.54116532759377E-17  -1.56108577117747E-15   3.68725793656168E-16   6.93975836263099E-01   6.93975836263099E-01
      0.00000000000000E+00   0.00000000000000E+00   1.56292490530211E-15   7.55089703971495E-20   1.56300041427251E-15
      5.93199639975174E-16  -5.00000000000000E-01  -5.00000000000000E-01   0.00000000000000E+00   0.00000000000000E+00
      0.00000000000000E+00   0.00000000000000E+00   0.00000000000000E+00  -4.93781383224968E-16
      7.90666319355313E-01
      0.00000000000000E+00   0.00000000000000E+00   0.00000000000000E+00   0.00000000000000E+00  -1.72041735853976E-15
     -9.41051019431480E-17  -1.81452246048291E-15   3.67744678754732E-16   7.90666319355313E-01   7.90666319355313E-01
      0.00000000000000E+00   0.00000000000000E+00   1.81515948517961E-15   7.57194559859303E-20   1.81523520463559E-15
      6.10767822411816E-16  -5.00000000000000E-01  -5.00000000000000E-01   0.00000000000000E+00   0.00000000000000E+00
      0.00000000000000E+00   0.00000000000000E+00   0.00000000000000E+00  -5.01574236902628E-16
      9.00248866859823E-01
      0.00000000000000E+00   0.00000000000000E+00   0.00000000000000E+00   0.00000000000000E+00  -2.14219682970950E-15
     -1.07029349389996E-16  -2.24922617909950E-15   3.66428464682522E-16   9.00248866859823E-01   9.00248866859823E-01
      0.00000000000000E+00   0.00000000000000E+00   2.24648364466580E-15   7.59434734118299E-20   2.24655958813922E-15
      6.30318806891453E-16  -5.00000000000000E-01  -5.00000000000000E-01   0.00000000000000E+00   0.00000000000000E+00
      0.00000000000000E+00   0.00000000000000E+00   0.00000000000000E+00  -5.10924192325777E-16
      1.00000000000000E+00
      0.00000000000000E+00   0.00000000000000E+00   0.00000000000000E+00   0.00000000000000E+00  -2.69807545327117E-15
     -1.19267057541133E-16  -2.81734251081231E-15   3.65227801354857E-16   1.00000000000000E+00   1.00000000000000E+00
      0.00000000000000E+00   0.00000000000000E+00   2.81715833496499E-15   7.61381806594125E-20   2.81723447314565E-15
      6.47846652629785E-16  -5.00000000000000E-01  -5.00000000000000E-01   0.00000000000000E+00   0.00000000000000E+00
      0.00000000000000E+00   0.00000000000000E+00   0.00000000000000E+00  -5.19148612584217E-16
      0.00000000000000E+00
      0.00000000000000E+00   0.00000000000000E+00   0.00000000000000E+00   0.00000000000000E+00  -2.70243586946831E-15
     -1.19266696064026E-16  -2.82170256553233E-15   3.65227823281947E-16   1.00000000000000E+00   1.00000000000000E+00
      0.00000000000000E+00   0.00000000000000E+00   2.81686600376401E-15   7.61381807935495E-20   2.81694214194481E-15
      6.47846662189196E-16  -5.00000000000000E-01  -5.00000000000000E-01   0.00000000000000E+00   0.00000000000000E+00
      0.00000000000000E+00   0.00000000000000E+00   0.00000000000000E+00  -5.19148526646849E-16
      1.00000000000000E-03
      0.00000000000000E+00   0.00000000000000E+00   0.00000000000000E+00   0.00000000000000E+00  -2.70465001681774E-15
     -1.19374923903560E-16  -2.82402494072130E-15   3.65195613055590E-16   1.00000000000000E+00   1.00000000000000E+00
      0.00000000000000E+00   0.00000000000000E+00   2.82126189173122E-15   7.61378616384780E-20   2.82133802959286E-15
      6.47741017827037E-16  -4.98000000000000E-01  -4.98000000000000E-01   0.00000000000000E+00   0.00000000000000E+00
      0.00000000000000E+00   0.00000000000000E+00   0.00000000000000E+00  -5.16858269294359E-16
      2.16000000000000E-03
      0.00000000000000E+00   0.00000000000000E+00   0.00000000000000E+00   0.00000000000000E+00  -2.71213369361832E-15
     -1.19498417407853E-16  -2.83163211102617E-15   3.65158333681895E-16   1.00000000000000E+00   1.00000000000000E+00
      0.00000000000000E+00   0.00000000000000E+00   2.83211230433924E-15   7.61374920206519E-20   2.83218844183126E-15
      6.47618471337209E-16  -4.95680000000000E-01  -4.95680000000000E-01   0.00000000000000E+00   0.00000000000000E+00
      0.00000000000000E+00   0.00000000000000E+00   0.00000000000000E+00  -5.14201266768634E-16
      3.55200000000000E-03
      0.00000000000000E+00   0.00000000000000E+00   0.00000000000000E+00   0.00000000000000E+00  -2.71587781350735E-15
     -1.19639191124017E-16  -2.83551700463137E-15   3.65113989826864E-16   1.00000000000000E+00   1.00000000000000E+00
      0.00000000000000E+00   0.00000000000000E+00   2.83788304506044E-15   7.61370509938861E-20   2.83795918211143E-15
      6.47471535208463E-16  -4.92896000000000E-01  -4.92896000000000E-01   0.00000000000000E+00   0.00000000000000E+00
      0.00000000000000E+00   0.00000000000000E+00   0.00000000000000E+00  -5.11011368719673E-16
      5.20384000000000E-03
      0.00000000000000E+00   0.00000000000000E+00   0.00000000000000E+00   0.00000000000000E+00  -2.72367635982934E-15
     -1.19797639113300E-16  -2.84347399894264E-15   3.65061804742296E-16   1.00000000000000E+00   1.00000000000000E+00
      0.00000000000000E+00   0.00000000000000E+00   2.84076903965823E-15   7.61365304804049E-20   2.84084517618871E-15
      6.47297288827021E-16  -4.89592320000000E-01  -4.89592320000000E-01   0.00000000000000E+00   0.00000000000000E+00
      0.00000000000000E+00   0.00000000000000E+00   0.00000000000000E+00  -5.07224369126928E-16
      7.16402346666667E-03
      0.00000000000000E+00   0.00000000000000E+00   0.00000000000000E+00   0.00000000000000E+00  -2.73323412953998E-15
     -1.19973308478004E-16  -2.85320743801798E-15   3.65000502807971E-16   1.00000000000000E+00   1.00000000000000E+00
      0.00000000000000E+00   0.00000000000000E+00   2.85334351452797E-15   7.61359168607699E-20   2.85341965044483E-15
      6.47090686324096E-16  -4.85671953066667E-01  -4.85671953066667E-01   0.00000000000000E+00   0.00000000000000E+00
      0.00000000000000E+00   0.00000000000000E+00   0.00000000000000E+00  -5.02728096245507E-16
      9.49010784711111E-03
      0.00000000000000E+00   0.00000000000000E+00   0.00000000000000E+00   0.00000000000000E+00  -2.74074170031105E-15
     -1.20163994252565E-16  -2.86090569456362E-15   3.64928652394449E-16   1.00000000000000E+00   1.00000000000000E+00
      0.00000000000000E+00   0.00000000000000E+00   2.86246095176522E-15   7.61351945020639E-20   2.86253708695972E-15
      6.46845763205497E-16  -4.81019784305778E-01  -4.81019784305778E-01   0.00000000000000E+00   0.00000000000000E+00
      0.00000000000000E+00   0.00000000000000E+00   0.00000000000000E+00  -4.97389128704477E-16
      1.22503946452385E-02
      0.00000000000000E+00   0.00000000000000E+00   0.00000000000000E+00   0.00000000000000E+00  -2.75399770140883E-15
     -1.20364803065259E-16  -2.87436250447409E-15   3.64844664294306E-16   1.00000000000000E+00   1.00000000000000E+00
      0.00000000000000E+00   0.00000000000000E+00   2.87514283156649E-15   7.61343455607105E-20   2.87521896591205E-15
      6.46555471537418E-16  -4.75499210709523E-01  -4.75499210709523E-01   0.00000000000000E+00   0.00000000000000E+00
      0.00000000000000E+00   0.00000000000000E+00   0.00000000000000E+00  -4.91048726031813E-16
      1.55259349790164E-02
      0.00000000000000E+00   0.00000000000000E+00   0.00000000000000E+00   0.00000000000000E+00  -2.76842458695780E-15
     -1.20566576717258E-16  -2.88899116367506E-15   3.64746813347439E-16   1.00000000000000E+00   1.00000000000000E+00
      0.00000000000000E+00   0.00000000000000E+00   2.88379523305608E-15   7.61333498958279E-20   2.88387136640597E-15
      6.46211492231902E-16  -4.68948130041967E-01  -4.68948130041967E-01   0.00000000000000E+00   0.00000000000000E+00
      0.00000000000000E+00   0.00000000000000E+00   0.00000000000000E+00  -4.83517910009383E-16
      1.94129095084328E-02
      0.00000000000000E+00   0.00000000000000E+00   0.00000000000000E+00   0.00000000000000E+00  -2.78210966995235E-15
     -1.20753777256108E-16  -2.90286344720846E-15   3.64633272232680E-16   1.00000000000000E+00   1.00000000000000E+00
      0.00000000000000E+00   0.00000000000000E+00   2.89909468236232E-15   7.61321850208733E-20   2.89917081454734E-15
      6.45804012318201E-16  -4.61174180983134E-01  -4.61174180983134E-01   0.00000000000000E+00   0.00000000000000E+00
      0.00000000000000E+00   0.00000000000000E+00   0.00000000000000E+00  -4.74571599924892E-16
      2.40254526166735E-02
      0.00000000000000E+00   0.00000000000000E+00   0.00000000000000E+00   0.00000000000000E+00  -2.79795799867345E-15
     -1.20899614862684E-16  -2.91885761353614E-15   3.64502283451926E-16   1.00000000000000E+00   1.00000000000000E+00
      0.00000000000000E+00   0.00000000000000E+00   2.92192519950186E-15   7.61308268598477E-20   2.92200133032872E-15
      6.45321512924765E-16  -4.51949094766653E-01  -4.51949094766653E-01   0.00000000000000E+00   0.00000000000000E+00
      0.00000000000000E+00   0.00000000000000E+00   0.00000000000000E+00  -4.63941141639450E-16
      2.94375031970094E-02
      0.00000000000000E+00   0.00000000000000E+00   0.00000000000000E+00   0.00000000000000E+00  -2.81627575719497E-15
     -1.20968003263298E-16  -2.93724376045826E-15   3.64353541761519E-16   1.00000000000000E+00   1.00000000000000E+00
      0.00000000000000E+00   0.00000000000000E+00   2.93839193881381E-15   7.61292652520985E-20   2.93846806807906E-15
      6.44756709555160E-16  -4.41124993605981E-01  -4.41124993605981E-01   0.00000000000000E+00   0.00000000000000E+00
      0.00000000000000E+00   0.00000000000000E+00   0.00000000000000E+00  -4.51449407438575E-16
      3.57876425446034E-02
      0.00000000000000E+00   0.00000000000000E+00   0.00000000000000E+00   0.00000000000000E+00  -2.83870359540256E-15
     -1.20905179622639E-16  -2.95960877502520E-15   3.64185852306011E-16   1.00000000000000E+00   1.00000000000000E+00