DF-ISE text

Info {
  version   = 1.0
  type      = xyplot
  datasets  = [
    "time"
    "S OuterVoltage" "S InnerVoltage" "S QuasiFermiPotential" "S DisplacementCurrent" "S eCurrent"
    "S hCurrent" "S TotalCurrent" "S Charge" "D OuterVoltage" "D InnerVoltage"
    "D QuasiFermiPotential" "D DisplacementCurrent" "D eCurrent" "D hCurrent" "D TotalCurrent"
    "D Charge" "G OuterVoltage" "G InnerVoltage" "G QuasiFermiPotential" "G DisplacementCurrent"
    "G eCurrent" "G hCurrent" "G TotalCurrent" "G Charge" ]
  functions = [
    Time
    OuterVoltage InnerVoltage QuasiFermiPotential DisplacementCurrent eCurrent
    hCurrent TotalCurrent Charge OuterVoltage InnerVoltage
    QuasiFermiPotential DisplacementCurrent eCurrent hCurrent TotalCurrent
    Charge OuterVoltage InnerVoltage QuasiFermiPotential DisplacementCurrent
    eCurrent hCurrent TotalCurrent Charge ]
}

Data {
      0.00000000000000E+00
      0.00000000000000E+00   0.00000000000000E+00   0.00000000000000E+00   0.00000000000000E+00  -1.98577444894964E-24
      2.12938024498565E-34  -1.98577444873670E-24   3.83376813502011E-16   0.00000000000000E+00   0.00000000000000E+00
      0.00000000000000E+00   0.00000000000000E+00   5.78834224339870E-19   2.78849892045500E-34   5.78834224339870E-19
      5.38076756999817E-16  -5.00000000000000E-01  -5.00000000000000E-01   0.00000000000000E+00   0.00000000000000E+00
      0.00000000000000E+00   0.00000000000000E+00   0.00000000000000E+00  -4.01655544885410E-16
      0.00000000000000E+00
      0.00000000000000E+00   0.00000000000000E+00   0.00000000000000E+00   0.00000000000000E+00  -6.37858358693082E-18
     -1.13808076446046E-31  -6.37858358693094E-18   3.83376813494567E-16   0.00000000000000E+00   0.00000000000000E+00
      0.00000000000000E+00   0.00000000000000E+00   4.05183944688079E-18  -1.14180685995353E-31   4.05183944688068E-18
      5.38076756991786E-16  -5.00000000000000E-01  -5.00000000000000E-01   0.00000000000000E+00   0.00000000000000E+00
      0.00000000000000E+00   0.00000000000000E+00   0.00000000000000E+00  -4.01655544887024E-16
      1.00000000000000E-03
      0.00000000000000E+00   0.00000000000000E+00   0.00000000000000E+00   0.00000000000000E+00  -7.00214199412092E-18
     -3.13848881709456E-22  -7.00245584300263E-18   3.83345530307112E-16   1.00000000000000E-03   1.00000000000000E-03
      0.00000000000000E+00   0.00000000000000E+00  -1.56839380309696E-18   1.28246965349917E-21  -1.56711133344346E-18
      5.38359807261984E-16  -5.00000000000000E-01  -5.00000000000000E-01   0.00000000000000E+00   0.00000000000000E+00
      0.00000000000000E+00   0.00000000000000E+00   0.00000000000000E+00  -4.01975109718454E-16
      2.17333333333333E-03
      0.00000000000000E+00   0.00000000000000E+00   0.00000000000000E+00   0.00000000000000E+00  -1.83331737862196E-18
     -6.77889832723805E-22  -1.83399526845469E-18   3.83309403866795E-16   2.17333333333333E-03   2.17333333333333E-03
      0.00000000000000E+00   0.00000000000000E+00  -3.68931779928805E-18   2.74394042796364E-21  -3.68657385886008E-18
      5.38692407467198E-16  -5.00000000000000E-01  -5.00000000000000E-01   0.00000000000000E+00   0.00000000000000E+00
      0.00000000000000E+00   0.00000000000000E+00   0.00000000000000E+00  -4.02346762915309E-16
      3.56568888888889E-03
      0.00000000000000E+00   0.00000000000000E+00   0.00000000000000E+00   0.00000000000000E+00  -7.31989481306214E-19
     -1.10396587142027E-21  -7.33093447177635E-19   3.83267328914283E-16   3.56568888888889E-03   3.56568888888889E-03
      0.00000000000000E+00   0.00000000000000E+00   1.04193942726818E-17   4.41891217747045E-21   1.04238131848593E-17
      5.39087759023661E-16  -5.00000000000000E-01  -5.00000000000000E-01   0.00000000000000E+00   0.00000000000000E+00
      0.00000000000000E+00   0.00000000000000E+00   0.00000000000000E+00  -4.02783256168062E-16
      5.21795081481481E-03
      0.00000000000000E+00   0.00000000000000E+00   0.00000000000000E+00   0.00000000000000E+00  -1.06599894264759E-17
     -1.60121437178687E-21  -1.06615906408477E-17   3.83218492619107E-16   5.21795081481481E-03   5.21795081481481E-03
      0.00000000000000E+00   0.00000000000000E+00   3.73553163646880E-18   6.32527570916487E-21   3.74185691217796E-18
      5.39557818460774E-16  -5.00000000000000E-01  -5.00000000000000E-01   0.00000000000000E+00   0.00000000000000E+00
      0.00000000000000E+00   0.00000000000000E+00   0.00000000000000E+00  -4.03294993871537E-16
      7.17863496691358E-03
      0.00000000000000E+00   0.00000000000000E+00   0.00000000000000E+00   0.00000000000000E+00  -2.61870816065166E-18
     -2.17948949144073E-21  -2.62088765014311E-18   3.83162033960330E-16   7.17863496691358E-03   7.17863496691358E-03
      0.00000000000000E+00   0.00000000000000E+00   5.62894999461470E-19   8.47680717735866E-21   5.71371806638829E-19
      5.40116854445669E-16  -5.00000000000000E-01  -5.00000000000000E-01   0.00000000000000E+00   0.00000000000000E+00
      0.00000000000000E+00   0.00000000000000E+00   0.00000000000000E+00  -4.03893729738627E-16
      9.50531349407078E-03
      0.00000000000000E+00   0.00000000000000E+00   0.00000000000000E+00   0.00000000000000E+00  -5.60991180029928E-18
     -2.84911379658162E-21  -5.61276091409586E-18   3.83097065820116E-16   9.50531349407078E-03   9.50531349407078E-03
      0.00000000000000E+00   0.00000000000000E+00   9.57019480680354E-18   1.08803566323461E-20   9.58107516343589E-18
      5.40781900545907E-16  -5.00000000000000E-01  -5.00000000000000E-01   0.00000000000000E+00   0.00000000000000E+00
      0.00000000000000E+00   0.00000000000000E+00   0.00000000000000E+00  -4.04592639216334E-16
      1.22663053462973E-02
      0.00000000000000E+00   0.00000000000000E+00   0.00000000000000E+00   0.00000000000000E+00   2.40837781353021E-18
     -3.62047311496590E-21   2.40475734041525E-18   3.83022705841930E-16   1.22663053462973E-02   1.22663053462973E-02
      0.00000000000000E+00   0.00000000000000E+00   1.16819418853154E-17   1.35322921116767E-20   1.16954741774271E-17
      5.41573293090432E-16  -5.00000000000000E-01  -5.00000000000000E-01   0.00000000000000E+00   0.00000000000000E+00
      0.00000000000000E+00   0.00000000000000E+00   0.00000000000000E+00  -4.05406377000895E-16
      1.55426823442728E-02
      0.00000000000000E+00   0.00000000000000E+00   0.00000000000000E+00   0.00000000000000E+00  -6.09987219897724E-19
     -4.50340016002281E-21  -6.14490620057746E-19   3.82938116741585E-16   1.55426823442728E-02   1.55426823442728E-02
      0.00000000000000E+00   0.00000000000000E+00   1.38361558807412E-17   1.64143304622048E-20   1.38525702112034E-17
      5.42515307523518E-16  -5.00000000000000E-01  -5.00000000000000E-01   0.00000000000000E+00   0.00000000000000E+00
      0.00000000000000E+00   0.00000000000000E+00   0.00000000000000E+00  -4.06351120887972E-16
      1.94306497152037E-02
      0.00000000000000E+00   0.00000000000000E+00   0.00000000000000E+00   0.00000000000000E+00   1.57896092889413E-18
     -5.50631118019512E-21   1.57345461771393E-18   3.82842553668839E-16   1.94306497152037E-02   1.94306497152037E-02
      0.00000000000000E+00   0.00000000000000E+00  -1.85255117800183E-18   1.94891452365317E-20  -1.83306203276530E-18
      5.43636905564031E-16  -5.00000000000000E-01  -5.00000000000000E-01   0.00000000000000E+00   0.00000000000000E+00
      0.00000000000000E+00   0.00000000000000E+00   0.00000000000000E+00  -4.07444620665512E-16
      2.40443709953751E-02
      0.00000000000000E+00   0.00000000000000E+00   0.00000000000000E+00   0.00000000000000E+00  -4.95258147482539E-18
     -6.63516880243363E-21  -4.95921664362783E-18   3.82735406720015E-16   2.40443709953751E-02   2.40443709953751E-02
      0.00000000000000E+00   0.00000000000000E+00   7.88734061875314E-18   2.26965172338913E-20   7.91003713598703E-18
      5.44972598682082E-16  -5.00000000000000E-01  -5.00000000000000E-01   0.00000000000000E+00   0.00000000000000E+00
      0.00000000000000E+00   0.00000000000000E+00   0.00000000000000E+00  -4.08706323651297E-16
      2.95193202478451E-02
      0.00000000000000E+00   0.00000000000000E+00   0.00000000000000E+00   0.00000000000000E+00  -4.53611094296138E-18
     -7.89230132767943E-21  -4.54400324428906E-18   3.82616229825018E-16   2.95193202478451E-02   2.95193202478451E-02
      0.00000000000000E+00   0.00000000000000E+00   1.36121689827476E-17   2.59513887858614E-20   1.36381203715334E-17
      5.46563439199795E-16  -5.00000000000000E-01  -5.00000000000000E-01   0.00000000000000E+00   0.00000000000000E+00
      0.00000000000000E+00   0.00000000000000E+00   0.00000000000000E+00  -4.10157630051888E-16
      3.60162600274429E-02
      0.00000000000000E+00   0.00000000000000E+00   0.00000000000000E+00   0.00000000000000E+00  -2.97111683657547E-18
     -9.27546221587910E-21  -2.98039229879135E-18   3.82484723137114E-16   3.60162600274429E-02   3.60162600274429E-02
      0.00000000000000E+00   0.00000000000000E+00   8.99434748161907E-18   2.91455721568305E-20   9.02349305377591E-18
      5.48458131224099E-16  -5.00000000000000E-01  -5.00000000000000E-01   0.00000000000000E+00   0.00000000000000E+00
      0.00000000000000E+00   0.00000000000000E+00   0.00000000000000E+00  -4.11822464198836E-16
      4.37259618992322E-02
      0.00000000000000E+00   0.00000000000000E+00   0.00000000000000E+00   0.00000000000000E+00  -2.00042023413700E-17
     -1.07775418161871E-20  -2.00149798831862E-17   3.82340640338657E-16   4.37259618992322E-02   4.37259618992322E-02
      0.00000000000000E+00   0.00000000000000E+00   2.27769789032301E-17   3.21550930504780E-20   2.28091339962806E-17
      5.50714263051133E-16  -5.00000000000000E-01  -5.00000000000000E-01   0.00000000000000E+00   0.00000000000000E+00
      0.00000000000000E+00   0.00000000000000E+00   0.00000000000000E+00  -4.13728320522517E-16
      5.28748081204222E-02
      0.00000000000000E+00   0.00000000000000E+00   0.00000000000000E+00   0.00000000000000E+00  -1.03327969840664E-17
     -1.23876166487013E-20  -1.03451846007151E-17   3.82183581788192E-16   5.28748081204222E-02   5.28748081204222E-02
      0.00000000000000E+00   0.00000000000000E+00   2.21718752456200E-17   3.48543623084008E-20   2.22067296079284E-17
      5.53399660149939E-16  -5.00000000000000E-01  -5.00000000000000E-01   0.00000000000000E+00   0.00000000000000E+00
      0.00000000000000E+00   0.00000000000000E+00   0.00000000000000E+00  -4.15907997190861E-16
      6.36094543532852E-02
      0.00000000000000E+00   0.00000000000000E+00   0.00000000000000E+00   0.00000000000000E+00  -2.44872195927562E-17
     -1.40758197911907E-20  -2.45012954125474E-17   3.82014494210232E-16   6.36094543532852E-02   6.36094543532852E-02
      0.00000000000000E+00   0.00000000000000E+00   1.00869718134419E-17   3.71151158382637E-20   1.01240869292801E-17
      5.56557961897023E-16  -5.00000000000000E-01  -5.00000000000000E-01   0.00000000000000E+00   0.00000000000000E+00
      0.00000000000000E+00   0.00000000000000E+00   0.00000000000000E+00  -4.18374577619766E-16
      7.62047725998443E-02
      0.00000000000000E+00   0.00000000000000E+00   0.00000000000000E+00   0.00000000000000E+00  -2.35449503334520E-17
     -1.58349628931446E-20  -2.35607852963451E-17   3.81831709771766E-16   7.62047725998443E-02   7.62047725998443E-02
      0.00000000000000E+00   0.00000000000000E+00   2.25720805685915E-17   3.88885780159508E-20   2.26109691466074E-17
      5.60269125885055E-16  -5.00000000000000E-01  -5.00000000000000E-01   0.00000000000000E+00   0.00000000000000E+00
      0.00000000000000E+00   0.00000000000000E+00   0.00000000000000E+00  -4.21172807794010E-16
      9.09832793424738E-02
      0.00000000000000E+00   0.00000000000000E+00   0.00000000000000E+00   0.00000000000000E+00  -1.91206517549738E-17
     -1.76682330115304E-20  -1.91383199879853E-17   3.81632208105131E-16   9.09832793424738E-02   9.09832793424738E-02
      0.00000000000000E+00   0.00000000000000E+00   1.38782935904032E-17   4.01776230817370E-20   1.39184712134849E-17
      5.64625331706724E-16  -5.00000000000000E-01  -5.00000000000000E-01   0.00000000000000E+00   0.00000000000000E+00
      0.00000000000000E+00   0.00000000000000E+00   0.00000000000000E+00  -4.24359944130106E-16
      1.08323393920492E-01
      0.00000000000000E+00   0.00000000000000E+00   0.00000000000000E+00   0.00000000000000E+00  -2.22624608796581E-17
     -1.95965480625842E-20  -2.22820574277207E-17   3.81411075900242E-16   1.08323393920492E-01   1.08323393920492E-01
      0.00000000000000E+00   0.00000000000000E+00   1.54329928798239E-17   4.10361128691253E-20   1.54740289926930E-17
      5.69732731786080E-16  -5.00000000000000E-01  -5.00000000000000E-01   0.00000000000000E+00   0.00000000000000E+00
      0.00000000000000E+00   0.00000000000000E+00   0.00000000000000E+00  -4.28009136598480E-16
      1.28669128358701E-01
      0.00000000000000E+00   0.00000000000000E+00   0.00000000000000E+00   0.00000000000000E+00  -2.48398641293598E-17
     -2.16733112965276E-20  -2.48615374406563E-17   3.81160567396263E-16   1.28669128358701E-01   1.28669128358701E-01
      0.00000000000000E+00   0.00000000000000E+00   2.15221286018744E-17   4.15555856607924E-20   2.15636841875352E-17
      5.75713257865871E-16  -5.00000000000000E-01  -5.00000000000000E-01   0.00000000000000E+00   0.00000000000000E+00
      0.00000000000000E+00   0.00000000000000E+00   0.00000000000000E+00  -4.32214942092628E-16
      1.52541456766199E-01
      0.00000000000000E+00   0.00000000000000E+00   0.00000000000000E+00   0.00000000000000E+00  -3.09408041386563E-17
     -2.40225821269910E-20  -3.09648267207833E-17   3.80868028093672E-16   1.52541456766199E-01   1.52541456766199E-01
      0.00000000000000E+00   0.00000000000000E+00   2.82340190111846E-17   4.18426330899602E-20   2.82758616442746E-17
      5.82705952897293E-16  -5.00000000000000E-01  -5.00000000000000E-01   0.00000000000000E+00   0.00000000000000E+00
      0.00000000000000E+00   0.00000000000000E+00   0.00000000000000E+00  -4.37105124286191E-16
      1.80551655430996E-01
      0.00000000000000E+00   0.00000000000000E+00   0.00000000000000E+00   0.00000000000000E+00  -2.37139361809038E-17
     -2.69215982261933E-20  -2.37408577791300E-17   3.80512074677394E-16   1.80551655430996E-01   1.80551655430996E-01
      0.00000000000000E+00   0.00000000000000E+00   3.35175249167407E-17   4.19943802597792E-20   3.35595192970004E-17
      5.90867510674377E-16  -5.00000000000000E-01  -5.00000000000000E-01   0.00000000000000E+00   0.00000000000000E+00
      0.00000000000000E+00   0.00000000000000E+00   0.00000000000000E+00  -4.42862339309102E-16
      2.13416955197692E-01
      0.00000000000000E+00   0.00000000000000E+00   0.00000000000000E+00   0.00000000000000E+00  -2.82498996299925E-17
     -3.09059808437174E-20  -2.82808056108362E-17   3.80059224431034E-16   2.13416955197692E-01   2.13416955197692E-01
      0.00000000000000E+00   0.00000000000000E+00   2.88947694674914E-17   4.20818632967357E-20   2.89368513307882E-17
      6.00374171420317E-16  -5.00000000000000E-01  -5.00000000000000E-01   0.00000000000000E+00   0.00000000000000E+00
      0.00000000000000E+00   0.00000000000000E+00   0.00000000000000E+00  -4.49743541772660E-16
      2.51540702927059E-01
      0.00000000000000E+00   0.00000000000000E+00   0.00000000000000E+00   0.00000000000000E+00  -3.87986936142461E-17
     -3.65560942157154E-20  -3.88352497084618E-17   3.79481016823240E-16   2.51540702927059E-01   2.51540702927059E-01
      0.00000000000000E+00   0.00000000000000E+00   5.26443222787040E-17   4.21466616615731E-20   5.26864689403656E-17
      6.11310710745490E-16  -5.00000000000000E-01  -5.00000000000000E-01   0.00000000000000E+00   0.00000000000000E+00
      0.00000000000000E+00   0.00000000000000E+00   0.00000000000000E+00  -4.57926053160344E-16
      2.96272566929516E-01
      0.00000000000000E+00   0.00000000000000E+00   0.00000000000000E+00   0.00000000000000E+00  -4.95414417758075E-17
     -4.39910304171548E-20  -4.95854328062246E-17   3.78763856936950E-16   2.96272566929516E-01   2.96272566929516E-01
      0.00000000000000E+00   0.00000000000000E+00   3.75272665210428E-17   4.22105045608760E-20   3.75694770256037E-17
      6.24055318312268E-16  -5.00000000000000E-01  -5.00000000000000E-01   0.00000000000000E+00   0.00000000000000E+00
      0.00000000000000E+00   0.00000000000000E+00   0.00000000000000E+00  -4.67603796052997E-16
      3.48161529172367E-01
      0.00000000000000E+00   0.00000000000000E+00   0.00000000000000E+00   0.00000000000000E+00  -6.68693729849687E-17
     -5.28882951295035E-20  -6.69222612800982E-17   3.77911864090943E-16   3.48161529172367E-01   3.48161529172367E-01
      0.00000000000000E+00   0.00000000000000E+00   4.93798139024552E-17   4.22818370577371E-20   4.94220957395129E-17
      6.38757389454996E-16  -5.00000000000000E-01  -5.00000000000000E-01   0.00000000000000E+00   0.00000000000000E+00
      0.00000000000000E+00   0.00000000000000E+00   0.00000000000000E+00  -4.78735244884555E-16
      4.08352725374074E-01
      0.00000000000000E+00   0.00000000000000E+00   0.00000000000000E+00   0.00000000000000E+00  -8.32545941410615E-17
     -6.38089322323971E-20  -8.33184030732939E-17   3.76881966398825E-16   4.08352725374074E-01   4.08352725374074E-01
      0.00000000000000E+00   0.00000000000000E+00   6.51409408465043E-17   4.23681599168407E-20   6.51833090064211E-17
      6.55703637850285E-16  -5.00000000000000E-01  -5.00000000000000E-01   0.00000000000000E+00   0.00000000000000E+00
      0.00000000000000E+00   0.00000000000000E+00   0.00000000000000E+00  -4.91587326546371E-16
      4.78174512968053E-01
      0.00000000000000E+00   0.00000000000000E+00   0.00000000000000E+00   0.00000000000000E+00  -1.02942606353648E-16
     -7.81790183752599E-20  -1.03020785372023E-16   3.75602017361519E-16   4.78174512968053E-01   4.78174512968053E-01
      0.00000000000000E+00   0.00000000000000E+00   1.11338882655366E-16   4.24750745847241E-20   1.11381357729950E-16
      6.75211444039703E-16  -5.00000000000000E-01  -5.00000000000000E-01   0.00000000000000E+00   0.00000000000000E+00
      0.00000000000000E+00   0.00000000000000E+00   0.00000000000000E+00  -5.06570541486572E-16
      5.59167786577070E-01
      0.00000000000000E+00   0.00000000000000E+00   0.00000000000000E+00   0.00000000000000E+00  -1.27669149854965E-16
     -9.51914925587278E-20  -1.27764341347524E-16   3.74049366032594E-16   5.59167786577070E-01   5.59167786577070E-01
      0.00000000000000E+00   0.00000000000000E+00   1.27696377563510E-16   4.25922572774676E-20   1.27738969820788E-16
      6.97694996006299E-16  -5.00000000000000E-01  -5.00000000000000E-01   0.00000000000000E+00   0.00000000000000E+00
      0.00000000000000E+00   0.00000000000000E+00   0.00000000000000E+00  -5.23738771762737E-16
      6.53119983963529E-01
      0.00000000000000E+00   0.00000000000000E+00   0.00000000000000E+00   0.00000000000000E+00  -1.91348168443209E-16
     -1.09046070600543E-19  -1.91457214513810E-16   3.72254619005782E-16   6.53119983963529E-01   6.53119983963529E-01
      0.00000000000000E+00   0.00000000000000E+00   1.77912356642330E-16   4.27224782843578E-20   1.77955079120614E-16
      7.23674329903056E-16  -5.00000000000000E-01  -5.00000000000000E-01   0.00000000000000E+00   0.00000000000000E+00
      0.00000000000000E+00   0.00000000000000E+00   0.00000000000000E+00  -5.42703592636124E-16
      7.62104532931821E-01
      0.00000000000000E+00   0.00000000000000E+00   0.00000000000000E+00   0.00000000000000E+00  -2.83377541675038E-16
     -1.17919111134357E-19  -2.83495460786172E-16   3.70117711189786E-16   7.62104532931821E-01   7.62104532931821E-01
      0.00000000000000E+00   0.00000000000000E+00   2.98166695728288E-16   4.28676856608496E-20   2.98209563413949E-16
      7.53643758265122E-16  -5.00000000000000E-01  -5.00000000000000E-01   0.00000000000000E+00   0.00000000000000E+00
      0.00000000000000E+00   0.00000000000000E+00   0.00000000000000E+00  -5.63902828622141E-16
      8.88526609735040E-01
      0.00000000000000E+00   0.00000000000000E+00   0.00000000000000E+00   0.00000000000000E+00  -5.83086523355876E-16
     -1.25134731361997E-19  -5.83211658087238E-16   3.67491955595136E-16   8.88526609735040E-01   8.88526609735040E-01
      0.00000000000000E+00   0.00000000000000E+00   5.76943061983366E-16   4.30292160480931E-20   5.76986091199414E-16
      7.88133615202462E-16  -5.00000000000000E-01  -5.00000000000000E-01   0.00000000000000E+00   0.00000000000000E+00
      0.00000000000000E+00   0.00000000000000E+00   0.00000000000000E+00  -5.88401787054128E-16
      1.00000000000000E+00
      0.00000000000000E+00   0.00000000000000E+00   0.00000000000000E+00   0.00000000000000E+00  -1.16359871422035E-15
     -1.31993885161980E-19  -1.16373070810551E-15   3.65067848884342E-16   1.00000000000000E+00   1.00000000000000E+00
      0.00000000000000E+00   0.00000000000000E+00   1.18181656625375E-15   4.31665393252906E-20   1.18185973279307E-15
      8.18306959440585E-16  -5.00000000000000E-01  -5.00000000000000E-01   0.00000000000000E+00   0.00000000000000E+00
      0.00000000000000E+00   0.00000000000000E+00   0.00000000000000E+00  -6.10292026067013E-16
      0.00000000000000E+00
      0.00000000000000E+00   0.00000000000000E+00   0.00000000000000E+00   0.00000000000000E+00  -1.16719392559421E-15
     -1.31993884726601E-19  -1.16732591947893E-15   3.65067848890106E-16   1.00000000000000E+00   1.00000000000000E+00
      0.00000000000000E+00   0.00000000000000E+00   1.17126652591073E-15   4.31665393253244E-20   1.17130969245006E-15
      8.18306959444354E-16  -5.00000000000000E-01  -5.00000000000000E-01   0.00000000000000E+00   0.00000000000000E+00
      0.00000000000000E+00   0.00000000000000E+00   0.00000000000000E+00  -6.10292026024191E-16
      1.00000000000000E-03
      0.00000000000000E+00   0.00000000000000E+00   0.00000000000000E+00   0.00000000000000E+00  -1.17870203601730E-15
     -1.32107948892192E-19  -1.17883414396620E-15   3.64924113076927E-16   1.00000000000000E+00   1.00000000000000E+00
      0.00000000000000E+00   0.00000000000000E+00   1.18106657101107E-15   4.31658938382927E-20   1.18110973690491E-15
      8.17923418556559E-16  -4.98000000000000E-01  -4.98000000000000E-01   0.00000000000000E+00   0.00000000000000E+00
      0.00000000000000E+00   0.00000000000000E+00   0.00000000000000E+00  -6.08463617671041E-16
      2.17333333333333E-03
      0.00000000000000E+00   0.00000000000000E+00   0.00000000000000E+00   0.00000000000000E+00  -1.19802562228729E-15
     -1.32250389956789E-19  -1.19815787267725E-15   3.64754954552441E-16   1.00000000000000E+00   1.00000000000000E+00
      0.00000000000000E+00   0.00000000000000E+00   1.19091601769086E-15   4.31651323715291E-20   1.19095918282323E-15
      8.17472696692097E-16  -4.95653333333333E-01  -4.95653333333333E-01   0.00000000000000E+00   0.00000000000000E+00
      0.00000000000000E+00   0.00000000000000E+00   0.00000000000000E+00  -6.06322838745816E-16
      3.56568888888889E-03
      0.00000000000000E+00   0.00000000000000E+00   0.00000000000000E+00   0.00000000000000E+00  -1.20239945321883E-15
     -1.32431711801546E-19  -1.20253188493063E-15   3.64553499220305E-16   1.00000000000000E+00   1.00000000000000E+00
      0.00000000000000E+00   0.00000000000000E+00   1.21439683212151E-15   4.31642230101122E-20   1.21443999634452E-15
      8.16936861132693E-16  -4.92868622222222E-01  -4.92868622222222E-01   0.00000000000000E+00   0.00000000000000E+00
      0.00000000000000E+00   0.00000000000000E+00   0.00000000000000E+00  -6.03788860274620E-16
      5.21795081481481E-03
      0.00000000000000E+00   0.00000000000000E+00   0.00000000000000E+00   0.00000000000000E+00  -1.22059770189474E-15
     -1.32664611158574E-19  -1.22073036650590E-15   3.64313410189803E-16   1.00000000000000E+00   1.00000000000000E+00
      0.00000000000000E+00   0.00000000000000E+00   1.21634903936314E-15   4.31631357702529E-20   1.21639220249891E-15
      8.16299628941608E-16  -4.89564098370370E-01  -4.89564098370370E-01   0.00000000000000E+00   0.00000000000000E+00
      0.00000000000000E+00   0.00000000000000E+00   0.00000000000000E+00  -6.00790958870785E-16
      7.17863496691358E-03
      0.00000000000000E+00   0.00000000000000E+00   0.00000000000000E+00   0.00000000000000E+00  -1.24304308896413E-15
     -1.32966646129940E-19  -1.24317605561026E-15   3.64027032583598E-16   1.00000000000000E+00   1.00000000000000E+00
      0.00000000000000E+00   0.00000000000000E+00   1.23950641807270E-15   4.31618340879729E-20   1.23954957990679E-15
      8.15541520880395E-16  -4.85642730066173E-01  -4.85642730066173E-01   0.00000000000000E+00   0.00000000000000E+00
      0.00000000000000E+00   0.00000000000000E+00   0.00000000000000E+00  -5.97246333587780E-16
      9.50531349407078E-03
      0.00000000000000E+00   0.00000000000000E+00   0.00000000000000E+00   0.00000000000000E+00  -1.26495365834459E-15
     -1.33362345174267E-19  -1.26508702068976E-15   3.63685086008829E-16   1.00000000000000E+00   1.00000000000000E+00
      0.00000000000000E+00   0.00000000000000E+00   1.27686423146719E-15   4.31602731844507E-20   1.27690739174037E-15
      8.14639204775837E-16  -4.80989373011858E-01  -4.80989373011858E-01   0.00000000000000E+00   0.00000000000000E+00
      0.00000000000000E+00   0.00000000000000E+00   0.00000000000000E+00  -5.93058329366997E-16
      1.22663053462973E-02
      0.00000000000000E+00   0.00000000000000E+00   0.00000000000000E+00   0.00000000000000E+00  -1.30373631625957E-15
     -1.33886281201519E-19  -1.30387020254077E-15   3.63276270696023E-16   1.00000000000000E+00   1.00000000000000E+00
      0.00000000000000E+00   0.00000000000000E+00   1.31036165949232E-15   4.31583979627739E-20   1.31040481789029E-15
      8.13564695631947E-16  -4.75467389307405E-01  -4.75467389307405E-01   0.00000000000000E+00   0.00000000000000E+00
      0.00000000000000E+00   0.00000000000000E+00   0.00000000000000E+00  -5.88114530792500E-16
      1.55426823442728E-02
      0.00000000000000E+00   0.00000000000000E+00   0.00000000000000E+00   0.00000000000000E+00  -1.34023055940567E-15
     -1.34587593186549E-19  -1.34036514699885E-15   3.62786756434273E-16   1.00000000000000E+00   1.00000000000000E+00
      0.00000000000000E+00   0.00000000000000E+00   1.35713874492213E-15   4.31561402826720E-20   1.35718190106241E-15
      8.12284379980971E-16  -4.68914635311454E-01  -4.68914635311454E-01   0.00000000000000E+00   0.00000000000000E+00
      0.00000000000000E+00   0.00000000000000E+00   0.00000000000000E+00  -5.82284790700710E-16
      1.94306497152037E-02
      0.00000000000000E+00   0.00000000000000E+00   0.00000000000000E+00   0.00000000000000E+00  -1.40146397049458E-15
     -1.35536524153267E-19  -1.40159950701873E-15   3.62199511534356E-16   1.00000000000000E+00   1.00000000000000E+00
      0.00000000000000E+00   0.00000000000000E+00   1.39362049437846E-15   4.31534154145010E-20   1.39366364779388E-15
      8.10757826277016E-16  -4.61138700569592E-01  -4.61138700569592E-01   0.00000000000000E+00   0.00000000000000E+00
      0.00000000000000E+00   0.00000000000000E+00   0.00000000000000E+00  -5.75419297956779E-16
      2.40443709953751E-02
      0.00000000000000E+00   0.00000000000000E+00   0.00000000000000E+00   0.00000000000000E+00  -1.45749471331089E-15
     -1.36833612970733E-19  -1.45763154692386E-15   3.61493410891563E-16   1.00000000000000E+00   1.00000000000000E+00
      0.00000000000000E+00   0.00000000000000E+00   1.47271594514521E-15   4.31501174070667E-20   1.47275909526262E-15
      8.08936336347262E-16  -4.51911258009250E-01  -4.51911258009250E-01   0.00000000000000E+00   0.00000000000000E+00
      0.00000000000000E+00   0.00000000000000E+00   0.00000000000000E+00  -5.67346856251813E-16
      2.95193202478451E-02
      0.00000000000000E+00   0.00000000000000E+00   0.00000000000000E+00   0.00000000000000E+00  -1.55400801160217E-15
     -1.38621980171671E-19  -1.55414663358234E-15   3.60642035331607E-16   1.00000000000000E+00   1.00000000000000E+00
      0.00000000000000E+00   0.00000000000000E+00   1.56136067622944E-15   4.31461130031180E-20   1.56140382234244E-15
      8.06761183835751E-16  -4.40961359504310E-01  -4.40961359504310E-01   0.00000000000000E+00   0.00000000000000E+00
      0.00000000000000E+00   0.00000000000000E+00   0.00000000000000E+00  -5.57873656973847E-16
      3.60162600274429E-02
      0.00000000000000E+00   0.00000000000000E+00   0.00000000000000E+00   0.00000000000000E+00  -1.66952272803235E-15
     -1.41101274386099E-19  -1.66966382930674E-15   3.59612042931100E-16   1.00000000000000E+00   1.00000000000000E+00
      0.00000000000000E+00   0.00000000000000E+00   1.66578119802356E-15   4.31412336144511E-20   1.66582433925717E-15
      8.04161474326079E-16  -4.27967479945114E-01  -4.27967479945114E-01   0.00000000000000E+00   0.00000000000000E+00
      0.00000000000000E+00   0.00000000000000E+00   0.00000000000000E+00  -5.46782962311651E-16
      4.37259618992322E-02
      0.00000000000000E+00   0.00000000000000E+00   0.00000000000000E+00   0.00000000000000E+00  -1.81020851419107E-15
     -1.44537734253573E-19  -1.81035305192532E-15   3.58360931211447E-16   1.00000000000000E+00   1.00000000000000E+00
      0.00000000000000E+00   0.00000000000000E+00   1.80490285319980E-15   4.31352645338530E-20   1.80494598846433E-15
      8.01051523692983E-16  -4.12548076201536E-01  -4.12548076201536E-01   0.00000000000000E+00   0.00000000000000E+00
      0.00000000000000E+00   0.00000000000000E+00   0.00000000000000E+00  -5.33836498632059E-16
      5.27720120954650E-02
      0.00000000000000E+00   0.00000000000000E+00   0.00000000000000E+00   0.00000000000000E+00  -2.02139695849135E-15
     -1.49197582699454E-19  -2.02154615607405E-15   3.56851312400844E-16   1.00000000000000E+00   1.00000000000000E+00