DF-ISE text

Info {
  version   = 1.0
  type      = xyplot
  datasets  = [
    "time"
    "S OuterVoltage" "S InnerVoltage" "S QuasiFermiPotential" "S DisplacementCurrent" "S eCurrent"
    "S hCurrent" "S TotalCurrent" "S Charge" "D OuterVoltage" "D InnerVoltage"
    "D QuasiFermiPotential" "D DisplacementCurrent" "D eCurrent" "D hCurrent" "D TotalCurrent"
    "D Charge" "G OuterVoltage" "G InnerVoltage" "G QuasiFermiPotential" "G DisplacementCurrent"
    "G eCurrent" "G hCurrent" "G TotalCurrent" "G Charge" ]
  functions = [
    Time
    OuterVoltage InnerVoltage QuasiFermiPotential DisplacementCurrent eCurrent
    hCurrent TotalCurrent Charge OuterVoltage InnerVoltage
    QuasiFermiPotential DisplacementCurrent eCurrent hCurrent TotalCurrent
    Charge OuterVoltage InnerVoltage QuasiFermiPotential DisplacementCurrent
    eCurrent hCurrent TotalCurrent Charge ]
}

Data {
      0.00000000000000E+00
      0.00000000000000E+00   0.00000000000000E+00   0.00000000000000E+00   0.00000000000000E+00   1.15314188178539E-18
      2.80216793010337E-34   1.15314188178539E-18   4.27482344522205E-16   0.00000000000000E+00   0.00000000000000E+00
      0.00000000000000E+00   0.00000000000000E+00   5.75516613506777E-19   2.79749940531856E-34   5.75516613506778E-19
      6.11028230104823E-16  -5.00000000000000E-01  -5.00000000000000E-01   0.00000000000000E+00   0.00000000000000E+00
      0.00000000000000E+00   0.00000000000000E+00   0.00000000000000E+00  -3.14069773777115E-16
      0.00000000000000E+00
      0.00000000000000E+00   0.00000000000000E+00   0.00000000000000E+00   0.00000000000000E+00   4.61256532758304E-18
     -1.20711025877086E-32   4.61256532758303E-18   4.27482344519972E-16   0.00000000000000E+00   0.00000000000000E+00
      0.00000000000000E+00   0.00000000000000E+00  -5.75517468550315E-18  -1.21823355430297E-32  -5.75517468550316E-18
      6.11028230102222E-16  -5.00000000000000E-01  -5.00000000000000E-01   0.00000000000000E+00   0.00000000000000E+00
      0.00000000000000E+00   0.00000000000000E+00   0.00000000000000E+00  -3.14069773777237E-16
      1.00000000000000E-03
      0.00000000000000E+00   0.00000000000000E+00   0.00000000000000E+00   0.00000000000000E+00  -7.01237924610727E-18
     -6.59417641487996E-22  -7.01303866374875E-18   4.27389951287228E-16   1.00000000000000E-03   1.00000000000000E-03
      0.00000000000000E+00   0.00000000000000E+00   9.33504648025854E-18   9.51122849478194E-22   9.33599760310801E-18
      6.11280899150340E-16  -5.00000000000000E-01  -5.00000000000000E-01   0.00000000000000E+00   0.00000000000000E+00
      0.00000000000000E+00   0.00000000000000E+00   0.00000000000000E+00  -3.14606278838151E-16
      2.17333333333333E-03
      0.00000000000000E+00   0.00000000000000E+00   0.00000000000000E+00   0.00000000000000E+00  -1.35575395949321E-18
     -1.44191663528833E-21  -1.35719587612850E-18   4.27282090957881E-16   2.17333333333333E-03   2.17333333333333E-03
      0.00000000000000E+00   0.00000000000000E+00   6.60510184436120E-18   2.04379161482299E-21   6.60714563597602E-18
      6.11577908150913E-16  -5.00000000000000E-01  -5.00000000000000E-01   0.00000000000000E+00   0.00000000000000E+00
      0.00000000000000E+00   0.00000000000000E+00   0.00000000000000E+00  -3.15233039217661E-16
      3.56568888888889E-03
      0.00000000000000E+00   0.00000000000000E+00   0.00000000000000E+00   0.00000000000000E+00   1.39726241009432E-18
     -2.38283149759588E-21   1.39487957859672E-18   4.27154858884463E-16   3.56568888888889E-03   3.56568888888889E-03
      0.00000000000000E+00   0.00000000000000E+00   6.20188682792373E-18   3.30828679975001E-21   6.20519511472348E-18
      6.11931114105363E-16  -5.00000000000000E-01  -5.00000000000000E-01   0.00000000000000E+00   0.00000000000000E+00
      0.00000000000000E+00   0.00000000000000E+00   0.00000000000000E+00  -3.15972986423317E-16
      5.21795081481481E-03
      0.00000000000000E+00   0.00000000000000E+00   0.00000000000000E+00   0.00000000000000E+00  -2.06783019456762E-17
     -3.51684978134719E-21  -2.06818187954576E-17   4.27004941521653E-16   5.21795081481481E-03   5.21795081481481E-03
      0.00000000000000E+00   0.00000000000000E+00   2.95165422792585E-18   4.76443770015821E-21   2.95641866562601E-18
      6.12351304087380E-16  -5.00000000000000E-01  -5.00000000000000E-01   0.00000000000000E+00   0.00000000000000E+00
      0.00000000000000E+00   0.00000000000000E+00   0.00000000000000E+00  -3.16845741624077E-16
      7.17863496691358E-03
      0.00000000000000E+00   0.00000000000000E+00   0.00000000000000E+00   0.00000000000000E+00  -1.74065709966699E-17
     -4.88727412111109E-21  -1.74114582707910E-17   4.26828524033770E-16   7.17863496691358E-03   7.17863496691358E-03
      0.00000000000000E+00   0.00000000000000E+00   2.04339871546041E-17   6.43135929120717E-21   2.04404185138953E-17
      6.12851392015875E-16  -5.00000000000000E-01  -5.00000000000000E-01   0.00000000000000E+00   0.00000000000000E+00
      0.00000000000000E+00   0.00000000000000E+00   0.00000000000000E+00  -3.17874007250316E-16
      9.50531349407078E-03
      0.00000000000000E+00   0.00000000000000E+00   0.00000000000000E+00   0.00000000000000E+00  -2.62890745780313E-17
     -6.54854161881868E-21  -2.62956231196501E-17   4.26621239770833E-16   9.50531349407078E-03   9.50531349407078E-03
      0.00000000000000E+00   0.00000000000000E+00   1.32256570499208E-17   8.32589979294795E-21   1.32339829497137E-17
      6.13446856043626E-16  -5.00000000000000E-01  -5.00000000000000E-01   0.00000000000000E+00   0.00000000000000E+00
      0.00000000000000E+00   0.00000000000000E+00   0.00000000000000E+00  -3.19083930113719E-16
      1.22663053462973E-02
      0.00000000000000E+00   0.00000000000000E+00   0.00000000000000E+00   0.00000000000000E+00  -3.46433494457196E-17
     -8.56960335522968E-21  -3.46519190490749E-17   4.26378125498865E-16   1.22663053462973E-02   1.22663053462973E-02
      0.00000000000000E+00   0.00000000000000E+00   3.24918642370058E-17   1.04604738309656E-20   3.25023247108368E-17
      6.14156271075415E-16  -5.00000000000000E-01  -5.00000000000000E-01   0.00000000000000E+00   0.00000000000000E+00
      0.00000000000000E+00   0.00000000000000E+00   0.00000000000000E+00  -3.20505458533719E-16
      1.55426823442728E-02
      0.00000000000000E+00   0.00000000000000E+00   0.00000000000000E+00   0.00000000000000E+00  -3.49758381300658E-17
     -1.10385201157032E-20  -3.49868766501815E-17   4.26093585173460E-16   1.55426823442728E-02   1.55426823442728E-02
      0.00000000000000E+00   0.00000000000000E+00   3.16808916732380E-17   1.28401741401108E-20   3.16937318473781E-17
      6.15001954902720E-16  -5.00000000000000E-01  -5.00000000000000E-01   0.00000000000000E+00   0.00000000000000E+00
      0.00000000000000E+00   0.00000000000000E+00   0.00000000000000E+00  -3.22172683958531E-16
      1.94306497152037E-02
      0.00000000000000E+00   0.00000000000000E+00   0.00000000000000E+00   0.00000000000000E+00  -5.32814631051922E-17
     -1.40687560240930E-20  -5.32955318612163E-17   4.25761369173509E-16   1.94306497152037E-02   1.94306497152037E-02
      0.00000000000000E+00   0.00000000000000E+00   3.72261061808458E-17   1.54591496893557E-20   3.72415653305352E-17
      6.16010752946033E-16  -5.00000000000000E-01  -5.00000000000000E-01   0.00000000000000E+00   0.00000000000000E+00
      0.00000000000000E+00   0.00000000000000E+00   0.00000000000000E+00  -3.24124139198925E-16
      2.40443709953751E-02
      0.00000000000000E+00   0.00000000000000E+00   0.00000000000000E+00   0.00000000000000E+00  -5.20200446572427E-17
     -1.78078625279652E-20  -5.20378525197707E-17   4.25374577360805E-16   2.40443709953751E-02   2.40443709953751E-02
      0.00000000000000E+00   0.00000000000000E+00   5.54428762868527E-17   1.82963966298277E-20   5.54611726834826E-17
      6.17214990624572E-16  -5.00000000000000E-01  -5.00000000000000E-01   0.00000000000000E+00   0.00000000000000E+00
      0.00000000000000E+00   0.00000000000000E+00   0.00000000000000E+00  -3.26403019859163E-16
      2.94578039641095E-02
      0.00000000000000E+00   0.00000000000000E+00   0.00000000000000E+00   0.00000000000000E+00  -7.22458570747939E-17
     -2.23967305826077E-20  -7.22682538053765E-17   4.24930627414745E-16   2.94578039641095E-02   2.94578039641095E-02
      0.00000000000000E+00   0.00000000000000E+00   7.19415703293216E-17   2.12793214796830E-20   7.19628496508013E-17
      6.18637354592612E-16  -5.00000000000000E-01  -5.00000000000000E-01   0.00000000000000E+00   0.00000000000000E+00
      0.00000000000000E+00   0.00000000000000E+00   0.00000000000000E+00  -3.29028003512889E-16
      3.58095653140912E-02
      0.00000000000000E+00   0.00000000000000E+00   0.00000000000000E+00   0.00000000000000E+00  -8.33495375438588E-17
     -2.80643289787690E-20  -8.33776018728376E-17   4.24422696778237E-16   3.58095653140912E-02   3.58095653140912E-02
      0.00000000000000E+00   0.00000000000000E+00   7.46962179811710E-17   2.43469760570467E-20   7.47205649572281E-17
      6.20318451255256E-16  -5.00000000000000E-01  -5.00000000000000E-01   0.00000000000000E+00   0.00000000000000E+00
      0.00000000000000E+00   0.00000000000000E+00   0.00000000000000E+00  -3.32043916963400E-16
      4.32622986314031E-02
      0.00000000000000E+00   0.00000000000000E+00   0.00000000000000E+00   0.00000000000000E+00  -9.51798023844685E-17
     -3.51147670998431E-20  -9.52149171515683E-17   4.23843524962534E-16   4.32622986314031E-02   4.32622986314031E-02
      0.00000000000000E+00   0.00000000000000E+00   9.17654103217835E-17   2.74183370418788E-20   9.17928286588254E-17
      6.22306520725560E-16  -5.00000000000000E-01  -5.00000000000000E-01   0.00000000000000E+00   0.00000000000000E+00
      0.00000000000000E+00   0.00000000000000E+00   0.00000000000000E+00  -3.35499708935871E-16
      5.20068390570490E-02
      0.00000000000000E+00   0.00000000000000E+00   0.00000000000000E+00   0.00000000000000E+00  -1.12984420430161E-16
     -4.39577644573244E-20  -1.13028378194619E-16   4.23185385084154E-16   5.20068390570490E-02   5.20068390570490E-02
      0.00000000000000E+00   0.00000000000000E+00   1.07651247728645E-16   3.03949403245720E-20   1.07681642668969E-16
      6.24658741733167E-16  -5.00000000000000E-01  -5.00000000000000E-01   0.00000000000000E+00   0.00000000000000E+00
      0.00000000000000E+00   0.00000000000000E+00   0.00000000000000E+00  -3.39448911146732E-16
      6.22670998231402E-02
      0.00000000000000E+00   0.00000000000000E+00   0.00000000000000E+00   0.00000000000000E+00  -1.36201752209173E-16
     -5.51527367602257E-20  -1.36256904945933E-16   4.22440089589261E-16   6.22670998231402E-02   6.22670998231402E-02
      0.00000000000000E+00   0.00000000000000E+00   1.40038396848523E-16   3.31683143283964E-20   1.40071565162851E-16
      6.27442776535016E-16  -5.00000000000000E-01  -5.00000000000000E-01   0.00000000000000E+00   0.00000000000000E+00
      0.00000000000000E+00   0.00000000000000E+00   0.00000000000000E+00  -3.43949992497763E-16
      7.41690023118060E-02
      0.00000000000000E+00   0.00000000000000E+00   0.00000000000000E+00   0.00000000000000E+00  -1.60856712589804E-16
     -6.93074514250346E-20  -1.60926020041229E-16   4.21608177336236E-16   7.41690023118060E-02   7.41690023118060E-02
      0.00000000000000E+00   0.00000000000000E+00   1.61441920080987E-16   3.56083913639187E-20   1.61477528472351E-16
      6.30700757682906E-16  -5.00000000000000E-01  -5.00000000000000E-01   0.00000000000000E+00   0.00000000000000E+00
      0.00000000000000E+00   0.00000000000000E+00   0.00000000000000E+00  -3.49010413529430E-16
      8.79752091986583E-02
      0.00000000000000E+00   0.00000000000000E+00   0.00000000000000E+00   0.00000000000000E+00  -1.78865358199799E-16
     -8.73915800731191E-20  -1.78952749779872E-16   4.20682401509829E-16   8.79752091986583E-02   8.79752091986583E-02
      0.00000000000000E+00   0.00000000000000E+00   1.86100962284089E-16   3.76450600152343E-20   1.86138607344104E-16
      6.34513324270247E-16  -5.00000000000000E-01  -5.00000000000000E-01   0.00000000000000E+00   0.00000000000000E+00
      0.00000000000000E+00   0.00000000000000E+00   0.00000000000000E+00  -3.54687057660673E-16
      1.03990409187407E-01
      0.00000000000000E+00   0.00000000000000E+00   0.00000000000000E+00   0.00000000000000E+00  -2.20489494495891E-16
     -1.10728834821435E-19  -2.20600223330713E-16   4.19656403878941E-16   1.03990409187407E-01   1.03990409187407E-01
      0.00000000000000E+00   0.00000000000000E+00   2.04880319132508E-16   3.92432524741242E-20   2.04919562384982E-16
      6.38975316858595E-16  -5.00000000000000E-01  -5.00000000000000E-01   0.00000000000000E+00   0.00000000000000E+00
      0.00000000000000E+00   0.00000000000000E+00   0.00000000000000E+00  -3.61036180913103E-16
      1.22568041174355E-01
      0.00000000000000E+00   0.00000000000000E+00   0.00000000000000E+00   0.00000000000000E+00  -2.37523280045714E-16
     -1.41052626879967E-19  -2.37664332672594E-16   4.18527674175655E-16   1.22568041174355E-01   1.22568041174355E-01
      0.00000000000000E+00   0.00000000000000E+00   2.51743745698187E-16   4.04106053083298E-20   2.51784156303495E-16
      6.44200400561401E-16  -5.00000000000000E-01  -5.00000000000000E-01   0.00000000000000E+00   0.00000000000000E+00
      0.00000000000000E+00   0.00000000000000E+00   0.00000000000000E+00  -3.68100587145465E-16
      1.43870392519390E-01
      0.00000000000000E+00   0.00000000000000E+00   0.00000000000000E+00   0.00000000000000E+00  -2.78894299013050E-16
     -1.79947407670759E-19  -2.79074246420721E-16   4.17316311655438E-16   1.43870392519390E-01   1.43870392519390E-01
      0.00000000000000E+00   0.00000000000000E+00   2.75637664904523E-16   4.11891624904064E-20   2.75678854067013E-16
      6.50256968622068E-16  -5.00000000000000E-01  -5.00000000000000E-01   0.00000000000000E+00   0.00000000000000E+00
      0.00000000000000E+00   0.00000000000000E+00   0.00000000000000E+00  -3.75800076105275E-16
      1.68297088728362E-01
      0.00000000000000E+00   0.00000000000000E+00   0.00000000000000E+00   0.00000000000000E+00  -3.21850286194634E-16
     -2.29008710714056E-19  -3.22079294905348E-16   4.16046362303258E-16   1.68297088728362E-01   1.68297088728362E-01
      0.00000000000000E+00   0.00000000000000E+00   3.17227922886924E-16   4.16668756091168E-20   3.17269589762533E-16
      6.57294458209765E-16  -5.00000000000000E-01  -5.00000000000000E-01   0.00000000000000E+00   0.00000000000000E+00
      0.00000000000000E+00   0.00000000000000E+00   0.00000000000000E+00  -3.84062024457971E-16
      1.95980677765198E-01
      0.00000000000000E+00   0.00000000000000E+00   0.00000000000000E+00   0.00000000000000E+00  -3.50522349800298E-16
     -2.87878427542382E-19  -3.50810228227841E-16   4.14776725064207E-16   1.95980677765198E-01   1.95980677765198E-01
      0.00000000000000E+00   0.00000000000000E+00   3.55608122439545E-16   4.19358541395441E-20   3.55650058293685E-16
      6.65400642107123E-16  -5.00000000000000E-01  -5.00000000000000E-01   0.00000000000000E+00   0.00000000000000E+00
      0.00000000000000E+00   0.00000000000000E+00   0.00000000000000E+00  -3.92630691705125E-16
      2.26986297486454E-01
      0.00000000000000E+00   0.00000000000000E+00   0.00000000000000E+00   0.00000000000000E+00  -3.85077792396719E-16
     -3.53465354142833E-19  -3.85431257750862E-16   4.13578424854393E-16   2.26986297486454E-01   2.26986297486454E-01
      0.00000000000000E+00   0.00000000000000E+00   3.93142010255281E-16   4.20824912504721E-20   3.93184092746532E-16
      6.74647181641813E-16  -5.00000000000000E-01  -5.00000000000000E-01   0.00000000000000E+00   0.00000000000000E+00
      0.00000000000000E+00   0.00000000000000E+00   0.00000000000000E+00  -4.01192164560224E-16
      2.61712591574261E-01
      0.00000000000000E+00   0.00000000000000E+00   0.00000000000000E+00   0.00000000000000E+00  -4.18836309499420E-16
     -4.21032456083696E-19  -4.19257341955504E-16   4.12498792397091E-16   2.61712591574261E-01   2.61712591574261E-01
      0.00000000000000E+00   0.00000000000000E+00   4.30138172172975E-16   4.21712030808196E-20   4.30180343376056E-16
      6.85190082067729E-16  -5.00000000000000E-01  -5.00000000000000E-01   0.00000000000000E+00   0.00000000000000E+00
      0.00000000000000E+00   0.00000000000000E+00   0.00000000000000E+00  -4.09574582843311E-16
      3.00143023698100E-01
      0.00000000000000E+00   0.00000000000000E+00   0.00000000000000E+00   0.00000000000000E+00  -4.50458387575923E-16
     -4.84442990761487E-19  -4.50942830566685E-16   4.11570009442455E-16   3.00143023698100E-01   3.00143023698100E-01
      0.00000000000000E+00   0.00000000000000E+00   4.61441092534938E-16   4.22390369705651E-20   4.61483331571909E-16
      6.97029309709244E-16  -5.00000000000000E-01  -5.00000000000000E-01   0.00000000000000E+00   0.00000000000000E+00
      0.00000000000000E+00   0.00000000000000E+00   0.00000000000000E+00  -4.17629449100366E-16
      3.42672701915149E-01
      0.00000000000000E+00   0.00000000000000E+00   0.00000000000000E+00   0.00000000000000E+00  -4.85105857187644E-16
     -5.38543685414777E-19  -4.85644400873059E-16   4.10792652213497E-16   3.42672701915149E-01   3.42672701915149E-01
      0.00000000000000E+00   0.00000000000000E+00   4.82883281229819E-16   4.23047507216285E-20   4.82925585980541E-16
      7.10268673686297E-16  -5.00000000000000E-01  -5.00000000000000E-01   0.00000000000000E+00   0.00000000000000E+00
      0.00000000000000E+00   0.00000000000000E+00   0.00000000000000E+00  -4.25387205836356E-16
      3.89738879142016E-01
      0.00000000000000E+00   0.00000000000000E+00   0.00000000000000E+00   0.00000000000000E+00  -5.01640681576723E-16
     -5.80075358952813E-19  -5.02220756935676E-16   4.10146375671995E-16   3.89738879142016E-01   3.89738879142016E-01
      0.00000000000000E+00   0.00000000000000E+00   4.84349012591747E-16   4.23758932107478E-20   4.84391388484958E-16
      7.25000792373759E-16  -5.00000000000000E-01  -5.00000000000000E-01   0.00000000000000E+00   0.00000000000000E+00
      0.00000000000000E+00   0.00000000000000E+00   0.00000000000000E+00  -4.32968983352057E-16
      4.41825448606416E-01
      0.00000000000000E+00   0.00000000000000E+00   0.00000000000000E+00   0.00000000000000E+00  -5.06620267115811E-16
     -6.10161268644100E-19  -5.07230428384455E-16   4.09576592740502E-16   4.41825448606416E-01   4.41825448606416E-01
      0.00000000000000E+00   0.00000000000000E+00   5.01410668097895E-16   4.24567048903738E-20   5.01453124802786E-16
      7.41296830616804E-16  -5.00000000000000E-01  -5.00000000000000E-01   0.00000000000000E+00   0.00000000000000E+00
      0.00000000000000E+00   0.00000000000000E+00   0.00000000000000E+00  -4.40646568522051E-16
      4.99467918813685E-01
      0.00000000000000E+00   0.00000000000000E+00   0.00000000000000E+00   0.00000000000000E+00  -5.19002711423738E-16
     -6.30581278437904E-19  -5.19633292702176E-16   4.09032689905486E-16   4.99467918813685E-01   4.99467918813685E-01
      0.00000000000000E+00   0.00000000000000E+00   5.19479918339223E-16   4.25537083632089E-20   5.19522472047586E-16
      7.59238001663892E-16  -5.00000000000000E-01  -5.00000000000000E-01   0.00000000000000E+00   0.00000000000000E+00
      0.00000000000000E+00   0.00000000000000E+00   0.00000000000000E+00  -4.48675887958744E-16
      5.64027485445827E-01
      0.00000000000000E+00   0.00000000000000E+00   0.00000000000000E+00   0.00000000000000E+00  -5.35334936648817E-16
     -6.42642826934073E-19  -5.35977579475751E-16   4.08465164338184E-16   5.64027485445827E-01   5.64027485445827E-01
      0.00000000000000E+00   0.00000000000000E+00   5.30706145324374E-16   4.26595585698814E-20   5.30748804882944E-16
      7.79149301563323E-16  -5.00000000000000E-01  -5.00000000000000E-01   0.00000000000000E+00   0.00000000000000E+00
      0.00000000000000E+00   0.00000000000000E+00   0.00000000000000E+00  -4.57386675609266E-16
      6.36334200073825E-01
      0.00000000000000E+00   0.00000000000000E+00   0.00000000000000E+00   0.00000000000000E+00  -5.55864910344580E-16
     -6.49057036871534E-19  -5.56513967381451E-16   4.07811382872853E-16   6.36334200073825E-01   6.36334200073825E-01
      0.00000000000000E+00   0.00000000000000E+00   5.51134897295904E-16   4.27717729492329E-20   5.51177669068853E-16
      8.01143843640360E-16  -5.00000000000000E-01  -5.00000000000000E-01   0.00000000000000E+00   0.00000000000000E+00
      0.00000000000000E+00   0.00000000000000E+00   0.00000000000000E+00  -4.67119146779471E-16
      7.18281809985557E-01
      0.00000000000000E+00   0.00000000000000E+00   0.00000000000000E+00   0.00000000000000E+00  -5.87918190394864E-16
     -6.52895887244939E-19  -5.88571086282109E-16   4.06986849736684E-16   7.18281809985557E-01   7.18281809985557E-01
      0.00000000000000E+00   0.00000000000000E+00   5.91437720140063E-16   4.28929396513100E-20   5.91480613079714E-16
      8.25602668598649E-16  -5.00000000000000E-01  -5.00000000000000E-01   0.00000000000000E+00   0.00000000000000E+00
      0.00000000000000E+00   0.00000000000000E+00   0.00000000000000E+00  -4.78419713690990E-16
      8.12248402684343E-01
      0.00000000000000E+00   0.00000000000000E+00   0.00000000000000E+00   0.00000000000000E+00  -6.35356134876345E-16
     -6.53798452676862E-19  -6.36009933329022E-16   4.05909870585296E-16   8.12248402684343E-01   8.12248402684343E-01
      0.00000000000000E+00   0.00000000000000E+00   6.33677166554160E-16   4.30251197398655E-20   6.33720191673899E-16
      8.52993245300525E-16  -5.00000000000000E-01  -5.00000000000000E-01   0.00000000000000E+00   0.00000000000000E+00
      0.00000000000000E+00   0.00000000000000E+00   0.00000000000000E+00  -4.91854160105879E-16
      9.19996762312284E-01
      0.00000000000000E+00   0.00000000000000E+00   0.00000000000000E+00   0.00000000000000E+00  -7.29049678863909E-16
     -6.51644478640964E-19  -7.29701323342550E-16   4.04482063481843E-16   9.19996762312284E-01   9.19996762312284E-01
      0.00000000000000E+00   0.00000000000000E+00   7.42099234606425E-16   4.31689501897105E-20   7.42142403556614E-16
      8.83580312665932E-16  -5.00000000000000E-01  -5.00000000000000E-01   0.00000000000000E+00   0.00000000000000E+00
      0.00000000000000E+00   0.00000000000000E+00   0.00000000000000E+00  -5.07909507420140E-16
      1.00000000000000E+00
      0.00000000000000E+00   0.00000000000000E+00   0.00000000000000E+00   0.00000000000000E+00  -8.70198363097743E-16
     -6.49948581047409E-19  -8.70848311678790E-16   4.03282014986182E-16   1.00000000000000E+00   1.00000000000000E+00
      0.00000000000000E+00   0.00000000000000E+00   8.78472509314084E-16   4.32712732304409E-20   8.78515780587315E-16
      9.05831300412223E-16  -5.00000000000000E-01  -5.00000000000000E-01   0.00000000000000E+00   0.00000000000000E+00
      0.00000000000000E+00   0.00000000000000E+00   0.00000000000000E+00  -5.20211391765650E-16
      0.00000000000000E+00
      0.00000000000000E+00   0.00000000000000E+00   0.00000000000000E+00   0.00000000000000E+00  -8.70790726627024E-16
     -6.49953758784586E-19  -8.71440680385808E-16   4.03281976698611E-16   1.00000000000000E+00   1.00000000000000E+00
      0.00000000000000E+00   0.00000000000000E+00   8.64558871500301E-16   4.32712730705206E-20   8.64602142773372E-16
      9.05831280190914E-16  -5.00000000000000E-01  -5.00000000000000E-01   0.00000000000000E+00   0.00000000000000E+00
      0.00000000000000E+00   0.00000000000000E+00   0.00000000000000E+00  -5.20211573017657E-16
      1.00000000000000E-03
      0.00000000000000E+00   0.00000000000000E+00   0.00000000000000E+00   0.00000000000000E+00  -8.71270404366420E-16
     -6.46484166978855E-19  -8.71916888533398E-16   4.03267138190508E-16   1.00000000000000E+00   1.00000000000000E+00
      0.00000000000000E+00   0.00000000000000E+00   8.74513095630051E-16   4.32710858075314E-20   8.74556366715858E-16
      9.05532687017295E-16  -4.98000000000000E-01  -4.98000000000000E-01   0.00000000000000E+00   0.00000000000000E+00
      0.00000000000000E+00   0.00000000000000E+00   0.00000000000000E+00  -5.17868678215772E-16
      2.13333333333333E-03
      0.00000000000000E+00   0.00000000000000E+00   0.00000000000000E+00   0.00000000000000E+00  -8.80652775676400E-16
     -6.42572120088517E-19  -8.81295347796488E-16   4.03250173880927E-16   1.00000000000000E+00   1.00000000000000E+00
      0.00000000000000E+00   0.00000000000000E+00   8.66083163099761E-16   4.32708728070811E-20   8.66126433972569E-16
      9.05193947354432E-16  -4.95733333333333E-01  -4.95733333333333E-01   0.00000000000000E+00   0.00000000000000E+00
      0.00000000000000E+00   0.00000000000000E+00   0.00000000000000E+00  -5.15214042132202E-16
      3.49333333333333E-03
      0.00000000000000E+00   0.00000000000000E+00   0.00000000000000E+00   0.00000000000000E+00  -8.78706866058103E-16
     -6.37900950127584E-19  -8.79344767008231E-16   4.03229645090394E-16   1.00000000000000E+00   1.00000000000000E+00
      0.00000000000000E+00   0.00000000000000E+00   8.73559157059760E-16   4.32706162960575E-20   8.73602427676056E-16
      9.04787020148082E-16  -4.93013333333333E-01  -4.93013333333333E-01   0.00000000000000E+00   0.00000000000000E+00
      0.00000000000000E+00   0.00000000000000E+00   0.00000000000000E+00  -5.12029198983230E-16
      5.12533333333333E-03
      0.00000000000000E+00   0.00000000000000E+00   0.00000000000000E+00   0.00000000000000E+00  -8.77915908326660E-16
     -6.32337777210503E-19  -8.78548246103871E-16   4.03204694511615E-16   1.00000000000000E+00   1.00000000000000E+00
      0.00000000000000E+00   0.00000000000000E+00   8.82531612352993E-16   4.32703069208864E-20   8.82574882659914E-16
      9.04298055710052E-16  -4.89749333333333E-01  -4.89749333333333E-01   0.00000000000000E+00   0.00000000000000E+00
      0.00000000000000E+00   0.00000000000000E+00   0.00000000000000E+00  -5.08208720273138E-16
      7.06197333333333E-03
      0.00000000000000E+00   0.00000000000000E+00   0.00000000000000E+00   0.00000000000000E+00  -8.82443922524534E-16
     -6.25771552410123E-19  -8.83069694076945E-16   4.03174817354480E-16   1.00000000000000E+00   1.00000000000000E+00
      0.00000000000000E+00   0.00000000000000E+00   8.72624048180605E-16   4.32699383900817E-20   8.72667318118995E-16
      9.03717017943408E-16  -4.85876053333333E-01  -4.85876053333333E-01   0.00000000000000E+00   0.00000000000000E+00
      0.00000000000000E+00   0.00000000000000E+00   0.00000000000000E+00  -5.03676076013373E-16
      9.36011946666667E-03
      0.00000000000000E+00   0.00000000000000E+00   0.00000000000000E+00   0.00000000000000E+00  -8.71466940728848E-16
     -6.18036333057768E-19  -8.72084977061906E-16   4.03138925215138E-16   1.00000000000000E+00   1.00000000000000E+00
      0.00000000000000E+00   0.00000000000000E+00   8.82105385328195E-16   4.32694989425339E-20   8.82148654827137E-16
      9.03026409416232E-16  -4.81279761066667E-01  -4.81279761066667E-01   0.00000000000000E+00   0.00000000000000E+00
      0.00000000000000E+00   0.00000000000000E+00   0.00000000000000E+00  -4.98298926468913E-16
      1.20872528782222E-02
      0.00000000000000E+00   0.00000000000000E+00   0.00000000000000E+00   0.00000000000000E+00  -8.75910265466529E-16
     -6.08943309485953E-19  -8.76519208776015E-16   4.03095654746578E-16   1.00000000000000E+00   1.00000000000000E+00
      0.00000000000000E+00   0.00000000000000E+00   8.62766883188850E-16   4.32689743807935E-20   8.62810152163231E-16
      9.02205367785449E-16  -4.75825494243556E-01  -4.75825494243556E-01   0.00000000000000E+00   0.00000000000000E+00
      0.00000000000000E+00   0.00000000000000E+00   0.00000000000000E+00  -4.91920432015296E-16
      1.53234511932681E-02
      0.00000000000000E+00   0.00000000000000E+00   0.00000000000000E+00   0.00000000000000E+00  -8.68378249952512E-16
     -5.98288951943811E-19  -8.68976538904456E-16   4.03043209919632E-16   1.00000000000000E+00   1.00000000000000E+00
      0.00000000000000E+00   0.00000000000000E+00   8.61827609181733E-16   4.32683472356981E-20   8.61870877528969E-16
      9.01228974525713E-16  -4.69353097613464E-01  -4.69353097613464E-01   0.00000000000000E+00   0.00000000000000E+00
      0.00000000000000E+00   0.00000000000000E+00   0.00000000000000E+00  -4.84355096673324E-16
      1.91205905495887E-02
      0.00000000000000E+00   0.00000000000000E+00   0.00000000000000E+00   0.00000000000000E+00  -8.82206845473904E-16
     -5.85943704422254E-19  -8.82792789178326E-16   4.02980365776393E-16   1.00000000000000E+00   1.00000000000000E+00
      0.00000000000000E+00   0.00000000000000E+00   8.87742518442223E-16   4.32676062308477E-20   8.87785786048454E-16
      9.00080748093362E-16  -4.61758818900823E-01  -4.61758818900823E-01   0.00000000000000E+00   0.00000000000000E+00
      0.00000000000000E+00   0.00000000000000E+00   0.00000000000000E+00  -4.75482348750642E-16
      2.35759007276715E-02
      0.00000000000000E+00   0.00000000000000E+00   0.00000000000000E+00   0.00000000000000E+00  -8.82282197745859E-16
     -5.71684143263362E-19  -8.82853881889122E-16   4.02904669592675E-16   1.00000000000000E+00   1.00000000000000E+00
      0.00000000000000E+00   0.00000000000000E+00   8.87325174061852E-16   4.32667296992684E-20   8.87368440791551E-16
      8.98730139008927E-16  -4.52848198544657E-01  -4.52848198544657E-01   0.00000000000000E+00   0.00000000000000E+00
      0.00000000000000E+00   0.00000000000000E+00   0.00000000000000E+00  -4.65077217979752E-16
      2.88034646699553E-02
      0.00000000000000E+00   0.00000000000000E+00   0.00000000000000E+00   0.00000000000000E+00  -8.83440464473829E-16
     -5.55276766138716E-19  -8.83995741239968E-16   4.02812920424898E-16   1.00000000000000E+00   1.00000000000000E+00