DF-ISE text

Info {
  version   = 1.0
  type      = xyplot
  datasets  = [
    "time"
    "S OuterVoltage" "S InnerVoltage" "S QuasiFermiPotential" "S DisplacementCurrent" "S eCurrent"
    "S hCurrent" "S TotalCurrent" "S Charge" "D OuterVoltage" "D InnerVoltage"
    "D QuasiFermiPotential" "D DisplacementCurrent" "D eCurrent" "D hCurrent" "D TotalCurrent"
    "D Charge" "G OuterVoltage" "G InnerVoltage" "G QuasiFermiPotential" "G DisplacementCurrent"
    "G eCurrent" "G hCurrent" "G TotalCurrent" "G Charge" ]
  functions = [
    Time
    OuterVoltage InnerVoltage QuasiFermiPotential DisplacementCurrent eCurrent
    hCurrent TotalCurrent Charge OuterVoltage InnerVoltage
    QuasiFermiPotential DisplacementCurrent eCurrent hCurrent TotalCurrent
    Charge OuterVoltage InnerVoltage QuasiFermiPotential DisplacementCurrent
    eCurrent hCurrent TotalCurrent Charge ]
}

Data {
      0.00000000000000E+00
      0.00000000000000E+00   0.00000000000000E+00   0.00000000000000E+00   0.00000000000000E+00   1.99520066973268E-32
     -1.99853026762133E-33   1.79534764297055E-32   6.07124095555099E-16   0.00000000000000E+00   0.00000000000000E+00
      0.00000000000000E+00   0.00000000000000E+00   1.01308622944358E-19  -1.67711568152130E-33   1.01308622944357E-19
      6.81548047940739E-16  -5.00000000000000E-01  -5.00000000000000E-01   0.00000000000000E+00   0.00000000000000E+00
      0.00000000000000E+00   0.00000000000000E+00   0.00000000000000E+00  -2.55128878798449E-16
      0.00000000000000E+00
      0.00000000000000E+00   0.00000000000000E+00   0.00000000000000E+00   0.00000000000000E+00   5.06318612457801E-19
      1.41069050396436E-29   5.06318612471908E-19   6.07124095032501E-16   0.00000000000000E+00   0.00000000000000E+00
      0.00000000000000E+00   0.00000000000000E+00  -5.06543115063000E-19   1.41272950452260E-29  -5.06543115048873E-19
      6.81548047618509E-16  -5.00000000000000E-01  -5.00000000000000E-01   0.00000000000000E+00   0.00000000000000E+00
      0.00000000000000E+00   0.00000000000000E+00   0.00000000000000E+00  -2.55128879025024E-16
      1.00000000000000E-03
      0.00000000000000E+00   0.00000000000000E+00   0.00000000000000E+00   0.00000000000000E+00  -3.04073101920073E-19
     -2.52905499694840E-21  -3.06602156917021E-19   6.06737857001856E-16   1.00000000000000E-03   1.00000000000000E-03
      0.00000000000000E+00   0.00000000000000E+00   1.82329123515485E-18   7.24933392685110E-22   1.82401616854753E-18
      6.81696140679268E-16  -5.00000000000000E-01  -5.00000000000000E-01   0.00000000000000E+00   0.00000000000000E+00
      0.00000000000000E+00   0.00000000000000E+00   0.00000000000000E+00  -2.56021324391634E-16
      2.17333333333333E-03
      0.00000000000000E+00   0.00000000000000E+00   0.00000000000000E+00   0.00000000000000E+00  -2.83921532059639E-18
     -5.60884942084828E-21  -2.84482417001723E-18   6.06282415244546E-16   2.17333333333333E-03   2.17333333333333E-03
      0.00000000000000E+00   0.00000000000000E+00   1.41790087504216E-18   1.55403254197719E-21   1.41945490758414E-18
      6.81867999515765E-16  -5.00000000000000E-01  -5.00000000000000E-01   0.00000000000000E+00   0.00000000000000E+00
      0.00000000000000E+00   0.00000000000000E+00   0.00000000000000E+00  -2.57073193407083E-16
      3.56568888888889E-03
      0.00000000000000E+00   0.00000000000000E+00   0.00000000000000E+00   0.00000000000000E+00  -2.23284313193418E-18
     -9.42783654448053E-21  -2.24227096847866E-18   6.05738838182586E-16   3.56568888888889E-03   3.56568888888889E-03
      0.00000000000000E+00   0.00000000000000E+00   2.93636894942082E-18   2.50875125098436E-21   2.93887770067181E-18
      6.82069310576814E-16  -5.00000000000000E-01  -5.00000000000000E-01   0.00000000000000E+00   0.00000000000000E+00
      0.00000000000000E+00   0.00000000000000E+00   0.00000000000000E+00  -2.58327948649342E-16
      5.21795081481481E-03
      0.00000000000000E+00   0.00000000000000E+00   0.00000000000000E+00   0.00000000000000E+00  -4.77459488774303E-18
     -1.42031045417634E-20  -4.78879799228480E-18   6.05089465918155E-16   5.21795081481481E-03   5.21795081481481E-03
      0.00000000000000E+00   0.00000000000000E+00   4.55521689066780E-18   3.60216316302056E-21   4.55881905383082E-18
      6.82304561308382E-16  -5.00000000000000E-01  -5.00000000000000E-01   0.00000000000000E+00   0.00000000000000E+00
      0.00000000000000E+00   0.00000000000000E+00   0.00000000000000E+00  -2.59825980465708E-16
      7.17863496691358E-03
      0.00000000000000E+00   0.00000000000000E+00   0.00000000000000E+00   0.00000000000000E+00  -5.39059210272917E-18
     -2.02337489981964E-20  -5.41082585172737E-18   6.04312901954349E-16   7.17863496691358E-03   7.17863496691358E-03
      0.00000000000000E+00   0.00000000000000E+00   4.55391654725350E-18   4.84650985496723E-21   4.55876305710847E-18
      6.82578714288311E-16  -5.00000000000000E-01  -5.00000000000000E-01   0.00000000000000E+00   0.00000000000000E+00
      0.00000000000000E+00   0.00000000000000E+00   0.00000000000000E+00  -2.61616126070773E-16
      9.50531349407078E-03
      0.00000000000000E+00   0.00000000000000E+00   0.00000000000000E+00   0.00000000000000E+00  -8.14806899388498E-18
     -2.79406732838181E-20  -8.17600966716880E-18   6.03383159684238E-16   9.50531349407078E-03   9.50531349407078E-03
      0.00000000000000E+00   0.00000000000000E+00   5.56398287849358E-18   6.25217975825208E-21   5.57023505825183E-18
      6.82897170611357E-16  -5.00000000000000E-01  -5.00000000000000E-01   0.00000000000000E+00   0.00000000000000E+00
      0.00000000000000E+00   0.00000000000000E+00   0.00000000000000E+00  -2.63757562019777E-16
      1.22663053462973E-02
      0.00000000000000E+00   0.00000000000000E+00   0.00000000000000E+00   0.00000000000000E+00  -1.28546215119535E-17
     -3.79300176454750E-20  -1.28925515295989E-17   6.02268646600198E-16   1.22663053462973E-02   1.22663053462973E-02
      0.00000000000000E+00   0.00000000000000E+00   6.97749736183928E-18   7.82664592238817E-21   6.98532400776167E-18
      6.83265730218423E-16  -5.00000000000000E-01  -5.00000000000000E-01   0.00000000000000E+00   0.00000000000000E+00
      0.00000000000000E+00   0.00000000000000E+00   0.00000000000000E+00  -2.66322044349680E-16
      1.55426823442728E-02
      0.00000000000000E+00   0.00000000000000E+00   0.00000000000000E+00   0.00000000000000E+00  -1.90141766123774E-17
     -5.10977435428525E-20  -1.90652743559202E-17   6.00930917302332E-16   1.55426823442728E-02   1.55426823442728E-02
      0.00000000000000E+00   0.00000000000000E+00   6.16593539400816E-18   9.57320027269030E-21   6.17550859428085E-18
      6.83690517245456E-16  -5.00000000000000E-01  -5.00000000000000E-01   0.00000000000000E+00   0.00000000000000E+00
      0.00000000000000E+00   0.00000000000000E+00   0.00000000000000E+00  -2.69396639882667E-16
      1.94306497152037E-02
      0.00000000000000E+00   0.00000000000000E+00   0.00000000000000E+00   0.00000000000000E+00  -2.63363941485816E-17
     -6.88080903489178E-20  -2.64052022389305E-17   5.99323122444949E-16   1.94306497152037E-02   1.94306497152037E-02
      0.00000000000000E+00   0.00000000000000E+00   4.74873274924252E-18   1.14893972768274E-20   4.76022214651934E-18
      6.84177842022322E-16  -5.00000000000000E-01  -5.00000000000000E-01   0.00000000000000E+00   0.00000000000000E+00
      0.00000000000000E+00   0.00000000000000E+00   0.00000000000000E+00  -2.73087096324502E-16
      2.40443709953751E-02
      0.00000000000000E+00   0.00000000000000E+00   0.00000000000000E+00   0.00000000000000E+00  -6.04315120041819E-17
     -9.32037495713695E-20  -6.05247157537533E-17   5.97388504680619E-16   2.40443709953751E-02   2.40443709953751E-02
      0.00000000000000E+00   0.00000000000000E+00  -1.93833151709197E-17   1.35675162748485E-20  -1.93697476546448E-17
      6.84734355529991E-16  -5.00000000000000E-01  -5.00000000000000E-01   0.00000000000000E+00   0.00000000000000E+00
      0.00000000000000E+00   0.00000000000000E+00   0.00000000000000E+00  -2.77521068820306E-16
      2.95193202478451E-02
      0.00000000000000E+00   0.00000000000000E+00   0.00000000000000E+00   0.00000000000000E+00  -7.79747286532824E-17
     -1.27780947128487E-19  -7.81025096004109E-17   5.95058144973542E-16   2.95193202478451E-02   2.95193202478451E-02
      0.00000000000000E+00   0.00000000000000E+00  -2.91579428299454E-17   1.57928976514048E-20  -2.91421499322940E-17
      6.85366845473853E-16  -5.00000000000000E-01  -5.00000000000000E-01   0.00000000000000E+00   0.00000000000000E+00
      0.00000000000000E+00   0.00000000000000E+00   0.00000000000000E+00  -2.82852914190295E-16
      3.60162600274429E-02
      0.00000000000000E+00   0.00000000000000E+00   0.00000000000000E+00   0.00000000000000E+00  -2.86970298918706E-17
     -1.78474019638559E-19  -2.88755039115092E-17   5.92249315063824E-16   3.60162600274429E-02   3.60162600274429E-02
      0.00000000000000E+00   0.00000000000000E+00   2.96453563586552E-17   1.81478721693459E-20   2.96635042308245E-17
      6.86082943105874E-16  -5.00000000000000E-01  -5.00000000000000E-01   0.00000000000000E+00   0.00000000000000E+00
      0.00000000000000E+00   0.00000000000000E+00   0.00000000000000E+00  -2.89267061350791E-16
      4.36393360355042E-02
      0.00000000000000E+00   0.00000000000000E+00   0.00000000000000E+00   0.00000000000000E+00  -3.64472227818709E-17
     -2.54824654420504E-19  -3.67020474362914E-17   5.88902394858785E-16   4.36393360355042E-02   4.36393360355042E-02
      0.00000000000000E+00   0.00000000000000E+00   3.36542358424938E-17   2.05925977604134E-20   3.36748284402542E-17
      6.86883617822201E-16  -5.00000000000000E-01  -5.00000000000000E-01   0.00000000000000E+00   0.00000000000000E+00
      0.00000000000000E+00   0.00000000000000E+00   0.00000000000000E+00  -2.96893483503054E-16
      5.25837452182962E-02
      0.00000000000000E+00   0.00000000000000E+00   0.00000000000000E+00   0.00000000000000E+00  -4.50553740958746E-17
     -3.74918458687466E-19  -4.54302925545620E-17   5.84918027495329E-16   5.25837452182962E-02   5.25837452182962E-02
      0.00000000000000E+00   0.00000000000000E+00   4.12796058718408E-17   2.31243812896647E-20   4.13027302531305E-17
      6.87780616988871E-16  -5.00000000000000E-01  -5.00000000000000E-01   0.00000000000000E+00   0.00000000000000E+00
      0.00000000000000E+00   0.00000000000000E+00   0.00000000000000E+00  -3.05950727794795E-16
      6.30785186594389E-02
      0.00000000000000E+00   0.00000000000000E+00   0.00000000000000E+00   0.00000000000000E+00  -5.80554551147449E-17
     -5.73515854364306E-19  -5.86289709691092E-17   5.80184322497239E-16   6.30785186594389E-02   6.30785186594389E-02
      0.00000000000000E+00   0.00000000000000E+00   4.70793362393851E-17   2.57663541619903E-20   4.71051025935471E-17
      6.88792835104776E-16  -5.00000000000000E-01  -5.00000000000000E-01   0.00000000000000E+00   0.00000000000000E+00
      0.00000000000000E+00   0.00000000000000E+00   0.00000000000000E+00  -3.16683020177015E-16
      7.53923861637129E-02
      0.00000000000000E+00   0.00000000000000E+00   0.00000000000000E+00   0.00000000000000E+00  -6.69829742302864E-17
     -9.21296221770351E-19  -6.79042704520568E-17   5.74578735527196E-16   7.53923861637129E-02   7.53923861637129E-02
      0.00000000000000E+00   0.00000000000000E+00   6.13057922648869E-17   2.85840755674955E-20   6.13343763404544E-17
      6.89951421383408E-16  -5.00000000000000E-01  -5.00000000000000E-01   0.00000000000000E+00   0.00000000000000E+00
      0.00000000000000E+00   0.00000000000000E+00   0.00000000000000E+00  -3.29355210503212E-16
      8.98406573687277E-02
      0.00000000000000E+00   0.00000000000000E+00   0.00000000000000E+00   0.00000000000000E+00  -8.27548830185218E-17
     -1.57094884178666E-18  -8.43258318603085E-17   5.67972890046352E-16   8.98406573687277E-02   8.98406573687277E-02
      0.00000000000000E+00   0.00000000000000E+00   7.86060193040073E-17   3.17077619723643E-20   7.86377270659796E-17
      6.91308088056800E-16  -5.00000000000000E-01  -5.00000000000000E-01   0.00000000000000E+00   0.00000000000000E+00
      0.00000000000000E+00   0.00000000000000E+00   0.00000000000000E+00  -3.44241050231480E-16
      1.06793295582612E-01
      0.00000000000000E+00   0.00000000000000E+00   0.00000000000000E+00   0.00000000000000E+00  -1.02202972818764E-16
     -2.87369990383208E-18  -1.05076672722596E-16   5.60243337737456E-16   1.06793295582612E-01   1.06793295582612E-01
      0.00000000000000E+00   0.00000000000000E+00   1.02259591014478E-16   3.53606776595981E-20   1.02294951692138E-16
      6.92949239434390E-16  -5.00000000000000E-01  -5.00000000000000E-01   0.00000000000000E+00   0.00000000000000E+00
      0.00000000000000E+00   0.00000000000000E+00   0.00000000000000E+00  -3.61598447031493E-16
      1.26684391086902E-01
      0.00000000000000E+00   0.00000000000000E+00   0.00000000000000E+00   0.00000000000000E+00  -1.34768531684973E-16
     -5.68623568670381E-18  -1.40454767371677E-16   5.51297499390610E-16   1.26684391086902E-01   1.26684391086902E-01
      0.00000000000000E+00   0.00000000000000E+00   1.32496742742275E-16   3.98976435210587E-20   1.32536640385796E-16
      6.95023718566717E-16  -5.00000000000000E-01  -5.00000000000000E-01   0.00000000000000E+00   0.00000000000000E+00
      0.00000000000000E+00   0.00000000000000E+00   0.00000000000000E+00  -3.81612418483525E-16
      1.49758061871880E-01
      0.00000000000000E+00   0.00000000000000E+00   0.00000000000000E+00   0.00000000000000E+00  -2.28050586810790E-16
     -1.20809449345602E-17  -2.40131531745350E-16   5.41247567222828E-16   1.49758061871880E-01   1.49758061871880E-01
      0.00000000000000E+00   0.00000000000000E+00   1.38854088292006E-16   4.57631976126029E-20   1.38899851489619E-16
      6.97766264059963E-16  -5.00000000000000E-01  -5.00000000000000E-01   0.00000000000000E+00   0.00000000000000E+00
      0.00000000000000E+00   0.00000000000000E+00   0.00000000000000E+00  -4.04014078448343E-16
      1.76523519982453E-01
      0.00000000000000E+00   0.00000000000000E+00   0.00000000000000E+00   0.00000000000000E+00  -2.64154477718378E-16
     -2.70811838661904E-17  -2.91235661584568E-16   5.30339572050753E-16   1.76523519982453E-01   1.76523519982453E-01
      0.00000000000000E+00   0.00000000000000E+00   2.40556043095549E-16   5.35184016603641E-20   2.40609561497209E-16
      7.01654658369122E-16  -5.00000000000000E-01  -5.00000000000000E-01   0.00000000000000E+00   0.00000000000000E+00
      0.00000000000000E+00   0.00000000000000E+00   0.00000000000000E+00  -4.28262668499827E-16
      2.07214578615911E-01
      0.00000000000000E+00   0.00000000000000E+00   0.00000000000000E+00   0.00000000000000E+00  -3.45672666013826E-16
     -6.02684950075234E-17  -4.05941161021350E-16   5.19410464146879E-16   2.07214578615911E-01   2.07214578615911E-01
      0.00000000000000E+00   0.00000000000000E+00   3.72432951129032E-16   6.31827902053909E-20   3.72496133919237E-16
      7.07519531490825E-16  -5.00000000000000E-01  -5.00000000000000E-01   0.00000000000000E+00   0.00000000000000E+00
      0.00000000000000E+00   0.00000000000000E+00   0.00000000000000E+00  -4.52578767886952E-16
      2.41997778400496E-01
      0.00000000000000E+00   0.00000000000000E+00   0.00000000000000E+00   0.00000000000000E+00  -4.45985146831963E-16
     -1.20009351168171E-16  -5.65994498000134E-16   5.09913362421690E-16   2.41997778400496E-01   2.41997778400496E-01
      0.00000000000000E+00   0.00000000000000E+00   5.46082825095382E-16   7.30912638918138E-20   5.46155916359274E-16
      7.16639172985360E-16  -5.00000000000000E-01  -5.00000000000000E-01   0.00000000000000E+00   0.00000000000000E+00
      0.00000000000000E+00   0.00000000000000E+00   0.00000000000000E+00  -4.73951258847050E-16
      2.80954962159231E-01
      0.00000000000000E+00   0.00000000000000E+00   0.00000000000000E+00   0.00000000000000E+00  -5.86118333233957E-16
     -1.93043506088037E-16  -7.79161839321994E-16   5.03312531514161E-16   2.80954962159231E-01   2.80954962159231E-01
      0.00000000000000E+00   0.00000000000000E+00   6.90897221257318E-16   8.00857298939795E-20   6.90977306987212E-16
      7.30206799538080E-16  -5.00000000000000E-01  -5.00000000000000E-01   0.00000000000000E+00   0.00000000000000E+00
      0.00000000000000E+00   0.00000000000000E+00   0.00000000000000E+00  -4.89418972938804E-16
      3.24587007969015E-01
      0.00000000000000E+00   0.00000000000000E+00   0.00000000000000E+00   0.00000000000000E+00  -6.60213082300647E-16
     -2.48543603874601E-16  -9.08756686175247E-16   4.99787857008824E-16   3.24587007969015E-01   3.24587007969015E-01
      0.00000000000000E+00   0.00000000000000E+00   8.08848361529253E-16   8.32057769866346E-20   8.08931567306239E-16
      7.48528114189134E-16  -5.00000000000000E-01  -5.00000000000000E-01   0.00000000000000E+00   0.00000000000000E+00
      0.00000000000000E+00   0.00000000000000E+00   0.00000000000000E+00  -4.98718810444502E-16
      3.73454899275973E-01
      0.00000000000000E+00   0.00000000000000E+00   0.00000000000000E+00   0.00000000000000E+00  -6.52001028758088E-16
     -2.76407046040011E-16  -9.28408074798099E-16   4.98302552659297E-16   3.73454899275973E-01   3.73454899275973E-01
      0.00000000000000E+00   0.00000000000000E+00   8.91919841230382E-16   8.42237711170008E-20   8.92004065001499E-16
      7.70946636388720E-16  -5.00000000000000E-01  -5.00000000000000E-01   0.00000000000000E+00   0.00000000000000E+00
      0.00000000000000E+00   0.00000000000000E+00   0.00000000000000E+00  -5.04057203499256E-16
      4.28186937539766E-01
      0.00000000000000E+00   0.00000000000000E+00   0.00000000000000E+00   0.00000000000000E+00  -6.85648040790660E-16
     -2.87816894400417E-16  -9.73464935191076E-16   4.97736614649350E-16   4.28186937539766E-01   4.28186937539766E-01
      0.00000000000000E+00   0.00000000000000E+00   9.02819651598854E-16   8.46401644771462E-20   9.02904291763331E-16
      7.96781552842493E-16  -5.00000000000000E-01  -5.00000000000000E-01   0.00000000000000E+00   0.00000000000000E+00
      0.00000000000000E+00   0.00000000000000E+00   0.00000000000000E+00  -5.07777731346002E-16
      4.90216580905397E-01
      0.00000000000000E+00   0.00000000000000E+00   0.00000000000000E+00   0.00000000000000E+00  -6.87552972029660E-16
     -2.94631779752928E-16  -9.82184751782588E-16   4.97409068473471E-16   4.90216580905397E-01   4.90216580905397E-01
      0.00000000000000E+00   0.00000000000000E+00   9.22935292413577E-16   8.49544867396739E-20   9.23020246900316E-16
      8.26076567177098E-16  -5.00000000000000E-01  -5.00000000000000E-01   0.00000000000000E+00   0.00000000000000E+00
      0.00000000000000E+00   0.00000000000000E+00   0.00000000000000E+00  -5.11345848076323E-16
      5.61343905297989E-01
      0.00000000000000E+00   0.00000000000000E+00   0.00000000000000E+00   0.00000000000000E+00  -6.80872700322867E-16
     -3.05569509076649E-16  -9.86442209399516E-16   4.96898693290435E-16   5.61343905297989E-01   5.61343905297989E-01
      0.00000000000000E+00   0.00000000000000E+00   9.55676763436076E-16   8.52636071441299E-20   9.55762027043220E-16
      8.59189960043776E-16  -5.00000000000000E-01  -5.00000000000000E-01   0.00000000000000E+00   0.00000000000000E+00
      0.00000000000000E+00   0.00000000000000E+00   0.00000000000000E+00  -5.15705659108886E-16
      6.42903237268160E-01
      0.00000000000000E+00   0.00000000000000E+00   0.00000000000000E+00   0.00000000000000E+00  -7.09106672610760E-16
     -3.12881266810269E-16  -1.02198793942103E-15   4.96567478973468E-16   6.42903237268160E-01   6.42903237268160E-01
      0.00000000000000E+00   0.00000000000000E+00   9.61581245406960E-16   8.55794215008260E-20   9.61666824828461E-16
      8.96706507679302E-16  -5.00000000000000E-01  -5.00000000000000E-01   0.00000000000000E+00   0.00000000000000E+00
      0.00000000000000E+00   0.00000000000000E+00   0.00000000000000E+00  -5.20168276663692E-16
      7.34249689074752E-01
      0.00000000000000E+00   0.00000000000000E+00   0.00000000000000E+00   0.00000000000000E+00  -6.92663708269172E-16
     -3.21077089625532E-16  -1.01374079789470E-15   4.96205185424845E-16   7.34249689074752E-01   7.34249689074752E-01
      0.00000000000000E+00   0.00000000000000E+00   9.93314006787861E-16   8.58855822552163E-20   9.93399892370117E-16
      9.37478772855535E-16  -5.00000000000000E-01  -5.00000000000000E-01   0.00000000000000E+00   0.00000000000000E+00
      0.00000000000000E+00   0.00000000000000E+00   0.00000000000000E+00  -5.25119542318207E-16
      8.40211573170398E-01
      0.00000000000000E+00   0.00000000000000E+00   0.00000000000000E+00   0.00000000000000E+00  -7.18978890231810E-16
     -3.42125188042377E-16  -1.06110407827419E-15   4.95315051313084E-16   8.40211573170398E-01   8.40211573170398E-01
      0.00000000000000E+00   0.00000000000000E+00   1.03883153345830E-15   8.61722006417635E-20   1.03891770565894E-15
      9.81584891503344E-16  -5.00000000000000E-01  -5.00000000000000E-01   0.00000000000000E+00   0.00000000000000E+00
      0.00000000000000E+00   0.00000000000000E+00   0.00000000000000E+00  -5.31766037790538E-16
      9.60301708478797E-01
      0.00000000000000E+00   0.00000000000000E+00   0.00000000000000E+00   0.00000000000000E+00  -7.81206691938002E-16
     -4.08906315189253E-16  -1.19011300712725E-15   4.92811627003661E-16   9.60301708478797E-01   9.60301708478797E-01
      0.00000000000000E+00   0.00000000000000E+00   1.17393152584123E-15   8.64011012788502E-20   1.17401792694251E-15
      1.02475572360923E-15  -5.00000000000000E-01  -5.00000000000000E-01   0.00000000000000E+00   0.00000000000000E+00
      0.00000000000000E+00   0.00000000000000E+00   0.00000000000000E+00  -5.42227191883084E-16
      1.00000000000000E+00
      0.00000000000000E+00   0.00000000000000E+00   0.00000000000000E+00   0.00000000000000E+00  -8.29174051686139E-16
     -4.52176903228863E-16  -1.28135095491500E-15   4.91396961847820E-16   1.00000000000000E+00   1.00000000000000E+00
      0.00000000000000E+00   0.00000000000000E+00   1.25947371171334E-15   8.64593325260674E-20   1.25956017104586E-15
      1.03736727649207E-15  -5.00000000000000E-01  -5.00000000000000E-01   0.00000000000000E+00   0.00000000000000E+00
      0.00000000000000E+00   0.00000000000000E+00   0.00000000000000E+00  -5.46836846153022E-16
      0.00000000000000E+00
      0.00000000000000E+00   0.00000000000000E+00   0.00000000000000E+00   0.00000000000000E+00  -8.09353012175562E-16
     -4.52183816333616E-16  -1.26153682850918E-15   4.91396746698827E-16   1.00000000000000E+00   1.00000000000000E+00
      0.00000000000000E+00   0.00000000000000E+00   1.26128164286650E-15   8.64593319288858E-20   1.26136810219843E-15
      1.03736716244749E-15  -5.00000000000000E-01  -5.00000000000000E-01   0.00000000000000E+00   0.00000000000000E+00
      0.00000000000000E+00   0.00000000000000E+00   0.00000000000000E+00  -5.46837285817835E-16
      1.00000000000000E-03
      0.00000000000000E+00   0.00000000000000E+00   0.00000000000000E+00   0.00000000000000E+00  -8.22211055565953E-16
     -4.52384525843225E-16  -1.27459558140918E-15   4.91369679652924E-16   1.00000000000000E+00   1.00000000000000E+00
      0.00000000000000E+00   0.00000000000000E+00   1.26100764177569E-15   8.64593120523223E-20   1.26109410108774E-15
      1.03727805998498E-15  -4.98000000000000E-01  -4.98000000000000E-01   0.00000000000000E+00   0.00000000000000E+00
      0.00000000000000E+00   0.00000000000000E+00   0.00000000000000E+00  -5.44527165416893E-16
      2.16000000000000E-03
      0.00000000000000E+00   0.00000000000000E+00   0.00000000000000E+00   0.00000000000000E+00  -8.17330050789822E-16
     -4.52631029886344E-16  -1.26996108067617E-15   4.91337822938813E-16   1.00000000000000E+00   1.00000000000000E+00
      0.00000000000000E+00   0.00000000000000E+00   1.26394673698708E-15   8.64592878246302E-20   1.26403319627491E-15
      1.03717441555270E-15  -4.95680000000000E-01  -4.95680000000000E-01   0.00000000000000E+00   0.00000000000000E+00
      0.00000000000000E+00   0.00000000000000E+00   0.00000000000000E+00  -5.41848445970280E-16
      3.55200000000000E-03
      0.00000000000000E+00   0.00000000000000E+00   0.00000000000000E+00   0.00000000000000E+00  -8.17101639044316E-16
     -4.52935104339777E-16  -1.27003674338409E-15   4.91299290793940E-16   1.00000000000000E+00   1.00000000000000E+00
      0.00000000000000E+00   0.00000000000000E+00   1.26822342888261E-15   8.64592580536693E-20   1.26830988814066E-15
      1.03704982118757E-15  -4.92896000000000E-01  -4.92896000000000E-01   0.00000000000000E+00   0.00000000000000E+00
      0.00000000000000E+00   0.00000000000000E+00   0.00000000000000E+00  -5.38634721763702E-16
      5.22240000000000E-03
      0.00000000000000E+00   0.00000000000000E+00   0.00000000000000E+00   0.00000000000000E+00  -8.19568976892181E-16
     -4.53310104080147E-16  -1.27287908097233E-15   4.91252670645167E-16   1.00000000000000E+00   1.00000000000000E+00
      0.00000000000000E+00   0.00000000000000E+00   1.27075649497189E-15   8.64592214806798E-20   1.27084295419337E-15
      1.03690001971691E-15  -4.89555200000000E-01  -4.89555200000000E-01   0.00000000000000E+00   0.00000000000000E+00
      0.00000000000000E+00   0.00000000000000E+00   0.00000000000000E+00  -5.34779203640033E-16
      7.22688000000000E-03
      0.00000000000000E+00   0.00000000000000E+00   0.00000000000000E+00   0.00000000000000E+00  -8.26691188758191E-16
     -4.53776599768911E-16  -1.28046778852710E-15   4.91196117650059E-16   1.00000000000000E+00   1.00000000000000E+00
      0.00000000000000E+00   0.00000000000000E+00   1.27502783490845E-15   8.64591762083850E-20   1.27511429408466E-15
      1.03671981177843E-15  -4.85546240000000E-01  -4.85546240000000E-01   0.00000000000000E+00   0.00000000000000E+00
      0.00000000000000E+00   0.00000000000000E+00   0.00000000000000E+00  -5.30154075362479E-16
      9.63225600000000E-03
      0.00000000000000E+00   0.00000000000000E+00   0.00000000000000E+00   0.00000000000000E+00  -8.37246480883200E-16
     -4.54360872082097E-16  -1.29160735296530E-15   4.91127356533005E-16   1.00000000000000E+00   1.00000000000000E+00
      0.00000000000000E+00   0.00000000000000E+00   1.27775474657257E-15   8.64591198314390E-20   1.27784120569241E-15
      1.03650290929735E-15  -4.80735488000000E-01  -4.80735488000000E-01   0.00000000000000E+00   0.00000000000000E+00
      0.00000000000000E+00   0.00000000000000E+00   0.00000000000000E+00  -5.24606119580837E-16
      1.25187072000000E-02
      0.00000000000000E+00   0.00000000000000E+00   0.00000000000000E+00   0.00000000000000E+00  -8.50747670821028E-16
     -4.55095405604896E-16  -1.30584307642592E-15   4.91043610599318E-16   1.00000000000000E+00   1.00000000000000E+00
      0.00000000000000E+00   0.00000000000000E+00   1.28181599179973E-15   8.64590493959403E-20   1.28190245084913E-15
      1.03624171881649E-15  -4.74962585600000E-01  -4.74962585600000E-01   0.00000000000000E+00   0.00000000000000E+00
      0.00000000000000E+00   0.00000000000000E+00   0.00000000000000E+00  -5.17951624475163E-16
      1.59824486400000E-02
      0.00000000000000E+00   0.00000000000000E+00   0.00000000000000E+00   0.00000000000000E+00  -8.41498658553499E-16
     -4.56037301957435E-16  -1.29753596051093E-15   4.90940964776684E-16   1.00000000000000E+00   1.00000000000000E+00
      0.00000000000000E+00   0.00000000000000E+00   1.29089324152218E-15   8.64589598262696E-20   1.29097970048201E-15
      1.03592678544425E-15  -4.68035102720000E-01  -4.68035102720000E-01   0.00000000000000E+00   0.00000000000000E+00
      0.00000000000000E+00   0.00000000000000E+00   0.00000000000000E+00  -5.09971408003976E-16
      2.00927551488000E-02
      0.00000000000000E+00   0.00000000000000E+00   0.00000000000000E+00   0.00000000000000E+00  -8.48048575923524E-16
     -4.57199453116674E-16  -1.30524802904020E-15   4.90817391373491E-16   1.00000000000000E+00   1.00000000000000E+00
      0.00000000000000E+00   0.00000000000000E+00   1.29889145640724E-15   8.64588499520102E-20   1.29897791525719E-15
      1.03555161586759E-15  -4.59814489702400E-01  -4.59814489702400E-01   0.00000000000000E+00   0.00000000000000E+00
      0.00000000000000E+00   0.00000000000000E+00   0.00000000000000E+00  -5.00506297247737E-16
      2.49703188725760E-02
      0.00000000000000E+00   0.00000000000000E+00   0.00000000000000E+00   0.00000000000000E+00  -8.62080961593659E-16
     -4.58643432118945E-16  -1.32072439371260E-15   4.90668198149363E-16   1.00000000000000E+00   1.00000000000000E+00
      0.00000000000000E+00   0.00000000000000E+00   1.31076506856731E-15   8.64587143592548E-20   1.31085152728167E-15
      1.03510434561472E-15  -4.50059362254848E-01  -4.50059362254848E-01   0.00000000000000E+00   0.00000000000000E+00
      0.00000000000000E+00   0.00000000000000E+00   0.00000000000000E+00  -4.89281227173938E-16
      3.07583611581235E-02
      0.00000000000000E+00   0.00000000000000E+00   0.00000000000000E+00   0.00000000000000E+00  -8.78460204784121E-16
     -4.60428045197507E-16  -1.33888824998163E-15   4.90488192050351E-16   1.00000000000000E+00   1.00000000000000E+00
      0.00000000000000E+00   0.00000000000000E+00   1.32175673681826E-15   8.64585479110452E-20   1.32184319536617E-15
      1.03457101556768E-15  -4.38483277683753E-01  -4.38483277683753E-01   0.00000000000000E+00   0.00000000000000E+00
      0.00000000000000E+00   0.00000000000000E+00   0.00000000000000E+00  -4.75969263102034E-16
      3.76268380036399E-02
      0.00000000000000E+00   0.00000000000000E+00   0.00000000000000E+00   0.00000000000000E+00  -8.98047364519325E-16
     -4.62600701831287E-16  -1.36064806635061E-15   4.90271792601600E-16   1.00000000000000E+00   1.00000000000000E+00