DF-ISE text

Info {
  version   = 1.0
  type      = xyplot
  datasets  = [
    "time"
    "S OuterVoltage" "S InnerVoltage" "S QuasiFermiPotential" "S DisplacementCurrent" "S eCurrent"
    "S hCurrent" "S TotalCurrent" "S Charge" "D OuterVoltage" "D InnerVoltage"
    "D QuasiFermiPotential" "D DisplacementCurrent" "D eCurrent" "D hCurrent" "D TotalCurrent"
    "D Charge" "G OuterVoltage" "G InnerVoltage" "G QuasiFermiPotential" "G DisplacementCurrent"
    "G eCurrent" "G hCurrent" "G TotalCurrent" "G Charge" ]
  functions = [
    Time
    OuterVoltage InnerVoltage QuasiFermiPotential DisplacementCurrent eCurrent
    hCurrent TotalCurrent Charge OuterVoltage InnerVoltage
    QuasiFermiPotential DisplacementCurrent eCurrent hCurrent TotalCurrent
    Charge OuterVoltage InnerVoltage QuasiFermiPotential DisplacementCurrent
    eCurrent hCurrent TotalCurrent Charge ]
}

Data {
      0.00000000000000E+00
      0.00000000000000E+00   0.00000000000000E+00   0.00000000000000E+00   0.00000000000000E+00   1.01266201778709E-19
     -1.88993830211952E-33   1.01266201778707E-19   5.71914906549430E-16   0.00000000000000E+00   0.00000000000000E+00
      0.00000000000000E+00   0.00000000000000E+00   2.60919200840777E-32  -1.85129377291843E-33   2.42406263111593E-32
      6.55980821207326E-16  -5.00000000000000E-01  -5.00000000000000E-01   0.00000000000000E+00   0.00000000000000E+00
      0.00000000000000E+00   0.00000000000000E+00   0.00000000000000E+00  -3.33077545739441E-16
      0.00000000000000E+00
      0.00000000000000E+00   0.00000000000000E+00   0.00000000000000E+00   0.00000000000000E+00   3.03798605566497E-19
      1.87941061687200E-29   3.03798605585291E-19   5.71914906226575E-16   0.00000000000000E+00   0.00000000000000E+00
      0.00000000000000E+00   0.00000000000000E+00   1.01314661486793E-19   1.88213770601538E-29   1.01314661505614E-19
      6.55980820881658E-16  -5.00000000000000E-01  -5.00000000000000E-01   0.00000000000000E+00   0.00000000000000E+00
      0.00000000000000E+00   0.00000000000000E+00   0.00000000000000E+00  -3.33077545741718E-16
      1.00000000000000E-03
      0.00000000000000E+00   0.00000000000000E+00   0.00000000000000E+00   0.00000000000000E+00  -3.03910645035417E-19
     -8.94178445939340E-22  -3.04804823481357E-19   5.71794191407650E-16   1.00000000000000E-03   1.00000000000000E-03
      0.00000000000000E+00   0.00000000000000E+00   3.03881634656845E-19   2.30031669691322E-21   3.06181951353759E-19
      6.56352226654190E-16  -5.00000000000000E-01  -5.00000000000000E-01   0.00000000000000E+00   0.00000000000000E+00
      0.00000000000000E+00   0.00000000000000E+00   0.00000000000000E+00  -3.33384530126292E-16
      2.17333333333333E-03
      0.00000000000000E+00   0.00000000000000E+00   0.00000000000000E+00   0.00000000000000E+00  -1.21584402584256E-18
     -1.93846321555501E-21  -1.21778248905811E-18   5.71654806392863E-16   2.17333333333333E-03   2.17333333333333E-03
      0.00000000000000E+00   0.00000000000000E+00  -4.04557008242263E-19   4.93463550938615E-21  -3.99622372732877E-19
      6.56790153011516E-16  -5.00000000000000E-01  -5.00000000000000E-01   0.00000000000000E+00   0.00000000000000E+00
      0.00000000000000E+00   0.00000000000000E+00   0.00000000000000E+00  -3.33740228403594E-16
      3.56568888888889E-03
      0.00000000000000E+00   0.00000000000000E+00   0.00000000000000E+00   0.00000000000000E+00  -1.01356993000131E-18
     -3.17090601311964E-21  -1.01674083601443E-18   5.71492463083932E-16   3.56568888888889E-03   3.56568888888889E-03
      0.00000000000000E+00   0.00000000000000E+00   6.07068736375600E-19   7.97088837805526E-21   6.15039624753655E-19
      6.57312733018767E-16  -5.00000000000000E-01  -5.00000000000000E-01   0.00000000000000E+00   0.00000000000000E+00
      0.00000000000000E+00   0.00000000000000E+00   0.00000000000000E+00  -3.34156216372881E-16
      5.21795081481481E-03
      0.00000000000000E+00   0.00000000000000E+00   0.00000000000000E+00   0.00000000000000E+00  -2.02770310813565E-18
     -4.62394544867418E-21  -2.03232705358432E-18   5.71303975173735E-16   5.21795081481481E-03   5.21795081481481E-03
      0.00000000000000E+00   0.00000000000000E+00   1.41488270739113E-18   1.14491265086941E-20   1.42633183389983E-18
      6.57936807677775E-16  -5.00000000000000E-01  -5.00000000000000E-01   0.00000000000000E+00   0.00000000000000E+00
      0.00000000000000E+00   0.00000000000000E+00   0.00000000000000E+00  -3.34641552277782E-16
      7.17863496691358E-03
      0.00000000000000E+00   0.00000000000000E+00   0.00000000000000E+00   0.00000000000000E+00  -1.42008787748886E-18
     -6.33526294504097E-21  -1.42642314043390E-18   5.71085894390060E-16   7.17863496691358E-03   7.17863496691358E-03
      0.00000000000000E+00   0.00000000000000E+00   2.11993888735067E-18   1.54039252404261E-20   2.13534281259110E-18
      6.58682672070174E-16  -5.00000000000000E-01  -5.00000000000000E-01   0.00000000000000E+00   0.00000000000000E+00
      0.00000000000000E+00   0.00000000000000E+00   0.00000000000000E+00  -3.35206319411507E-16
      9.50531349407078E-03
      0.00000000000000E+00   0.00000000000000E+00   0.00000000000000E+00   0.00000000000000E+00  -3.14553606551255E-18
     -8.34820469947628E-21  -3.15388427021203E-18   5.70834586118907E-16   9.50531349407078E-03   9.50531349407078E-03
      0.00000000000000E+00   0.00000000000000E+00   1.51270253341439E-18   1.98595895602079E-20   1.53256212297460E-18
      6.59574835055851E-16  -5.00000000000000E-01  -5.00000000000000E-01   0.00000000000000E+00   0.00000000000000E+00
      0.00000000000000E+00   0.00000000000000E+00   0.00000000000000E+00  -3.35861567770340E-16
      1.22663053462973E-02
      0.00000000000000E+00   0.00000000000000E+00   0.00000000000000E+00   0.00000000000000E+00  -6.59839471817484E-18
     -1.07128478389246E-20  -6.60910756601376E-18   5.70546251177408E-16   1.22663053462973E-02   1.22663053462973E-02
      0.00000000000000E+00   0.00000000000000E+00   1.61123392457079E-18   2.48233057034736E-20   1.63605723027426E-18
      6.60642852465786E-16  -5.00000000000000E-01  -5.00000000000000E-01   0.00000000000000E+00   0.00000000000000E+00
      0.00000000000000E+00   0.00000000000000E+00   0.00000000000000E+00  -3.36619380599175E-16
      1.55426823442728E-02
      0.00000000000000E+00   0.00000000000000E+00   0.00000000000000E+00   0.00000000000000E+00  -4.67257895750344E-18
     -1.34871089019608E-20  -4.68606606640540E-18   5.70216977836487E-16   1.55426823442728E-02   1.55426823442728E-02
      0.00000000000000E+00   0.00000000000000E+00   4.52120459340730E-18   3.02769232404905E-20   4.55148151664779E-18
      6.61922337490527E-16  -5.00000000000000E-01  -5.00000000000000E-01   0.00000000000000E+00   0.00000000000000E+00
      0.00000000000000E+00   0.00000000000000E+00   0.00000000000000E+00  -3.37492900684015E-16
      1.94306497152037E-02
      0.00000000000000E+00   0.00000000000000E+00   0.00000000000000E+00   0.00000000000000E+00  -9.24902982068213E-18
     -1.67384199754945E-20  -9.26576824065762E-18   5.69842766135354E-16   1.94306497152037E-02   1.94306497152037E-02
      0.00000000000000E+00   0.00000000000000E+00   2.80783399551190E-18   3.61676615607745E-20   2.84400165707268E-18
      6.63456118363649E-16  -5.00000000000000E-01  -5.00000000000000E-01   0.00000000000000E+00   0.00000000000000E+00
      0.00000000000000E+00   0.00000000000000E+00   0.00000000000000E+00  -3.38496436302966E-16
      2.40443709953751E-02
      0.00000000000000E+00   0.00000000000000E+00   0.00000000000000E+00   0.00000000000000E+00  -9.25595801274931E-18
     -2.05464577656593E-20  -9.27650447051497E-18   5.69419485598913E-16   2.40443709953751E-02   2.40443709953751E-02
      0.00000000000000E+00   0.00000000000000E+00   4.89949356879858E-18   4.23990667601921E-20   4.94189263555877E-18
      6.65295536411835E-16  -5.00000000000000E-01  -5.00000000000000E-01   0.00000000000000E+00   0.00000000000000E+00
      0.00000000000000E+00   0.00000000000000E+00   0.00000000000000E+00  -3.39645729546681E-16
      2.95193202478451E-02
      0.00000000000000E+00   0.00000000000000E+00   0.00000000000000E+00   0.00000000000000E+00  -9.87449107193058E-18
     -2.50081782149590E-20  -9.89949925014554E-18   5.68942665944950E-16   2.95193202478451E-02   2.95193202478451E-02
      0.00000000000000E+00   0.00000000000000E+00   9.06823231502302E-18   4.88244907846675E-20   9.11705680580769E-18
      6.67501823629582E-16  -5.00000000000000E-01  -5.00000000000000E-01   0.00000000000000E+00   0.00000000000000E+00
      0.00000000000000E+00   0.00000000000000E+00   0.00000000000000E+00  -3.40958594155447E-16
      3.60162600274429E-02
      0.00000000000000E+00   0.00000000000000E+00   0.00000000000000E+00   0.00000000000000E+00  -2.72036147651662E-17
     -3.02469996607405E-20  -2.72338617648270E-17   5.68407013876079E-16   3.60162600274429E-02   3.60162600274429E-02
      0.00000000000000E+00   0.00000000000000E+00  -4.06515948481796E-18   5.52467071698731E-20  -4.00991277764808E-18
      6.70147499535435E-16  -5.00000000000000E-01  -5.00000000000000E-01   0.00000000000000E+00   0.00000000000000E+00
      0.00000000000000E+00   0.00000000000000E+00   0.00000000000000E+00  -3.42456144520248E-16
      4.37259618992322E-02
      0.00000000000000E+00   0.00000000000000E+00   0.00000000000000E+00   0.00000000000000E+00  -5.00772809112745E-17
     -3.64288793156571E-20  -5.01137097905901E-17   5.67805551302129E-16   4.37259618992322E-02   4.37259618992322E-02
      0.00000000000000E+00   0.00000000000000E+00  -2.30109239136794E-17   6.14279747547520E-20  -2.29494959389246E-17
      6.73317737736665E-16  -5.00000000000000E-01  -5.00000000000000E-01   0.00000000000000E+00   0.00000000000000E+00
      0.00000000000000E+00   0.00000000000000E+00   0.00000000000000E+00  -3.44164834411850E-16
      5.28748081204222E-02
      0.00000000000000E+00   0.00000000000000E+00   0.00000000000000E+00   0.00000000000000E+00  -2.75707186611298E-17
     -4.37925463068897E-20  -2.76145112074367E-17   5.67128007731627E-16   5.28748081204222E-02   5.28748081204222E-02
      0.00000000000000E+00   0.00000000000000E+00   3.34505499016985E-18   6.71134346680663E-20   3.41216842483792E-18
      6.77111411368077E-16  -5.00000000000000E-01  -5.00000000000000E-01   0.00000000000000E+00   0.00000000000000E+00
      0.00000000000000E+00   0.00000000000000E+00   0.00000000000000E+00  -3.46120051449055E-16
      6.37314389695677E-02
      0.00000000000000E+00   0.00000000000000E+00   0.00000000000000E+00   0.00000000000000E+00  -2.79145427756845E-17
     -5.27011856688444E-20  -2.79672439613533E-17   5.66358467822549E-16   6.37314389695677E-02   6.37314389695677E-02
      0.00000000000000E+00   0.00000000000000E+00   8.59438079495831E-18   7.20683394022117E-20   8.66644913436052E-18
      6.81641895803150E-16  -5.00000000000000E-01  -5.00000000000000E-01   0.00000000000000E+00   0.00000000000000E+00
      0.00000000000000E+00   0.00000000000000E+00   0.00000000000000E+00  -3.48371275495104E-16
      7.66146409105537E-02
      0.00000000000000E+00   0.00000000000000E+00   0.00000000000000E+00   0.00000000000000E+00  -2.11994375812676E-17
     -6.37407457920691E-20  -2.12631783270597E-17   5.65471342189952E-16   7.66146409105537E-02   7.66146409105537E-02
      0.00000000000000E+00   0.00000000000000E+00   2.11186975869482E-17   7.61219037670974E-20   2.11948194907152E-17
      6.87036832343797E-16  -5.00000000000000E-01  -5.00000000000000E-01   0.00000000000000E+00   0.00000000000000E+00
      0.00000000000000E+00   0.00000000000000E+00   0.00000000000000E+00  -3.50990677902019E-16
      9.17309311879772E-02
      0.00000000000000E+00   0.00000000000000E+00   0.00000000000000E+00   0.00000000000000E+00  -2.50336533273517E-17
     -7.77461395563235E-20  -2.51113994669080E-17   5.64436377757404E-16   9.17309311879772E-02   9.17309311879772E-02
      0.00000000000000E+00   0.00000000000000E+00   2.62096263452436E-17   7.91783121774782E-20   2.62888046574211E-17
      6.93364136328953E-16  -5.00000000000000E-01  -5.00000000000000E-01   0.00000000000000E+00   0.00000000000000E+00
      0.00000000000000E+00   0.00000000000000E+00   0.00000000000000E+00  -3.54052467586408E-16
      1.09467378446821E-01
      0.00000000000000E+00   0.00000000000000E+00   0.00000000000000E+00   0.00000000000000E+00  -3.02289840730182E-17
     -9.63910325504140E-20  -3.03253751055686E-17   5.63189071320858E-16   1.09467378446821E-01   1.09467378446821E-01
      0.00000000000000E+00   0.00000000000000E+00   3.10700307851882E-17   8.13164245496050E-20   3.11513472097378E-17
      7.00745571591713E-16  -5.00000000000000E-01  -5.00000000000000E-01   0.00000000000000E+00   0.00000000000000E+00
      0.00000000000000E+00   0.00000000000000E+00   0.00000000000000E+00  -3.57711289225630E-16
      1.30278143230531E-01
      0.00000000000000E+00   0.00000000000000E+00   0.00000000000000E+00   0.00000000000000E+00  -3.88691388222395E-17
     -1.22947141041680E-19  -3.89920859632812E-17   5.61617953253640E-16   1.30278143230531E-01   1.30278143230531E-01
      0.00000000000000E+00   0.00000000000000E+00   3.85912848280305E-17   8.27004318368637E-20   3.86739852598674E-17
      7.09289640095854E-16  -5.00000000000000E-01  -5.00000000000000E-01   0.00000000000000E+00   0.00000000000000E+00
      0.00000000000000E+00   0.00000000000000E+00   0.00000000000000E+00  -3.62220267407293E-16
      1.54696107243417E-01
      0.00000000000000E+00   0.00000000000000E+00   0.00000000000000E+00   0.00000000000000E+00  -5.24642362546361E-17
     -1.64594090633440E-19  -5.26288303452696E-17   5.59518550174987E-16   1.54696107243417E-01   1.54696107243417E-01
      0.00000000000000E+00   0.00000000000000E+00   4.45691885552368E-17   8.35359949531785E-20   4.46527245501900E-17
      7.19054072447722E-16  -5.00000000000000E-01  -5.00000000000000E-01   0.00000000000000E+00   0.00000000000000E+00
      0.00000000000000E+00   0.00000000000000E+00   0.00000000000000E+00  -3.68024115043332E-16
      1.83346518351870E-01
      0.00000000000000E+00   0.00000000000000E+00   0.00000000000000E+00   0.00000000000000E+00  -6.31465298675942E-17
     -2.39425671971804E-19  -6.33859555395660E-17   5.56501689063962E-16   1.83346518351870E-01   1.83346518351870E-01
      0.00000000000000E+00   0.00000000000000E+00   6.53847571651246E-17   8.40211845481021E-20   6.54687783496727E-17
      7.29967713171370E-16  -5.00000000000000E-01  -5.00000000000000E-01   0.00000000000000E+00   0.00000000000000E+00
      0.00000000000000E+00   0.00000000000000E+00   0.00000000000000E+00  -3.75944789784947E-16
      2.16580995237676E-01
      0.00000000000000E+00   0.00000000000000E+00   0.00000000000000E+00   0.00000000000000E+00  -9.29216275424146E-17
     -3.98315054182076E-19  -9.33199425965967E-17   5.51910526728196E-16   2.16580995237676E-01   2.16580995237676E-01
      0.00000000000000E+00   0.00000000000000E+00   9.14931187122678E-17   8.43070508202728E-20   9.15774257630880E-17
      7.41582299027692E-16  -5.00000000000000E-01  -5.00000000000000E-01   0.00000000000000E+00   0.00000000000000E+00
      0.00000000000000E+00   0.00000000000000E+00   0.00000000000000E+00  -3.87328963384974E-16
      2.55132988425210E-01
      0.00000000000000E+00   0.00000000000000E+00   0.00000000000000E+00   0.00000000000000E+00  -1.43642923210795E-16
     -8.21116249350959E-19  -1.44464039460146E-16   5.44652294669549E-16   2.55132988425210E-01   2.55132988425210E-01
      0.00000000000000E+00   0.00000000000000E+00   1.42870847697636E-16   8.44902720810068E-20   1.42955337969717E-16
      7.53239866861209E-16  -5.00000000000000E-01  -5.00000000000000E-01   0.00000000000000E+00   0.00000000000000E+00
      0.00000000000000E+00   0.00000000000000E+00   0.00000000000000E+00  -4.04445568985196E-16
      2.99339273946917E-01
      0.00000000000000E+00   0.00000000000000E+00   0.00000000000000E+00   0.00000000000000E+00  -2.30418043806066E-16
     -2.30105847653986E-18  -2.32719102282606E-16   5.33405716600473E-16   2.99339273946917E-01   2.99339273946917E-01
      0.00000000000000E+00   0.00000000000000E+00   2.29558637908226E-16   8.46136476625862E-20   2.29643251555888E-16
      7.63911938749280E-16  -5.00000000000000E-01  -5.00000000000000E-01   0.00000000000000E+00   0.00000000000000E+00
      0.00000000000000E+00   0.00000000000000E+00   0.00000000000000E+00  -4.30051460289521E-16
      3.49439730871517E-01
      0.00000000000000E+00   0.00000000000000E+00   0.00000000000000E+00   0.00000000000000E+00  -3.60949686671448E-16
     -9.03381864414394E-18  -3.69983505315592E-16   5.17657845843600E-16   3.49439730871517E-01   3.49439730871517E-01
      0.00000000000000E+00   0.00000000000000E+00   3.57814775664946E-16   8.47009801953048E-20   3.57899476645142E-16
      7.73327451139052E-16  -5.00000000000000E-01  -5.00000000000000E-01   0.00000000000000E+00   0.00000000000000E+00
      0.00000000000000E+00   0.00000000000000E+00   0.00000000000000E+00  -4.65297057072237E-16
      4.05552242627070E-01
      0.00000000000000E+00   0.00000000000000E+00   0.00000000000000E+00   0.00000000000000E+00  -5.21258906618229E-16
     -3.75404660782539E-17  -5.58799372696483E-16   5.00715306725801E-16   4.05552242627070E-01   4.05552242627070E-01
      0.00000000000000E+00   0.00000000000000E+00   5.42692155599018E-16   8.48025662245516E-20   5.42776958165243E-16
      7.84689385587634E-16  -5.00000000000000E-01  -5.00000000000000E-01   0.00000000000000E+00   0.00000000000000E+00
      0.00000000000000E+00   0.00000000000000E+00   0.00000000000000E+00  -5.03371689058747E-16
      4.69894589440103E-01
      0.00000000000000E+00   0.00000000000000E+00   0.00000000000000E+00   0.00000000000000E+00  -6.94950729374000E-16
     -1.02808651055613E-16  -7.97759380429614E-16   4.88451969277953E-16   4.69894589440103E-01   4.69894589440103E-01
      0.00000000000000E+00   0.00000000000000E+00   7.48913135463128E-16   8.49869624302911E-20   7.48998122425558E-16
      8.04299169256950E-16  -5.00000000000000E-01  -5.00000000000000E-01   0.00000000000000E+00   0.00000000000000E+00
      0.00000000000000E+00   0.00000000000000E+00   0.00000000000000E+00  -5.32181525857353E-16
      5.41100119913194E-01
      0.00000000000000E+00   0.00000000000000E+00   0.00000000000000E+00   0.00000000000000E+00  -7.52018259031044E-16
     -1.55661414547468E-16  -9.07679673578511E-16   4.83330848638862E-16   5.41100119913194E-01   5.41100119913194E-01
      0.00000000000000E+00   0.00000000000000E+00   9.01363894814039E-16   8.52521350818098E-20   9.01449146949120E-16
      8.33307506376043E-16  -5.00000000000000E-01  -5.00000000000000E-01   0.00000000000000E+00   0.00000000000000E+00
      0.00000000000000E+00   0.00000000000000E+00   0.00000000000000E+00  -5.46670876173579E-16
      6.18951499897106E-01
      0.00000000000000E+00   0.00000000000000E+00   0.00000000000000E+00   0.00000000000000E+00  -7.81796145810151E-16
     -1.73953316677028E-16  -9.55749462487179E-16   4.81951717145910E-16   6.18951499897106E-01   6.18951499897106E-01
      0.00000000000000E+00   0.00000000000000E+00   9.39992438039772E-16   8.55472843681584E-20   9.40077985324140E-16
      8.68168057497474E-16  -5.00000000000000E-01  -5.00000000000000E-01   0.00000000000000E+00   0.00000000000000E+00
      0.00000000000000E+00   0.00000000000000E+00   0.00000000000000E+00  -5.53925543478895E-16
      7.05107027079302E-01
      0.00000000000000E+00   0.00000000000000E+00   0.00000000000000E+00   0.00000000000000E+00  -7.86211519923419E-16
     -1.78988663376761E-16  -9.65200183300180E-16   4.81596981183363E-16   7.05107027079302E-01   7.05107027079302E-01
      0.00000000000000E+00   0.00000000000000E+00   9.57295519418113E-16   8.58415885604052E-20   9.57381361006673E-16
      9.06714905483041E-16  -5.00000000000000E-01  -5.00000000000000E-01   0.00000000000000E+00   0.00000000000000E+00
      0.00000000000000E+00   0.00000000000000E+00   0.00000000000000E+00  -5.59640819985234E-16
      8.01601217523362E-01
      0.00000000000000E+00   0.00000000000000E+00   0.00000000000000E+00   0.00000000000000E+00  -7.89040748025875E-16
     -1.83796610949004E-16  -9.72837358974879E-16   4.81267265354481E-16   8.01601217523362E-01   8.01601217523362E-01
      0.00000000000000E+00   0.00000000000000E+00   9.69444642913605E-16   8.61166211920359E-20   9.69530759534797E-16
      9.47786325235280E-16  -5.00000000000000E-01  -5.00000000000000E-01   0.00000000000000E+00   0.00000000000000E+00
      0.00000000000000E+00   0.00000000000000E+00   0.00000000000000E+00  -5.65992597382125E-16
      9.12247889232550E-01
      0.00000000000000E+00   0.00000000000000E+00   0.00000000000000E+00   0.00000000000000E+00  -8.17049800286606E-16
     -2.06572350357386E-16  -1.02362215064399E-15   4.79811980271399E-16   9.12247889232550E-01   9.12247889232550E-01
      0.00000000000000E+00   0.00000000000000E+00   1.02461436951659E-15   8.63485330941748E-20   1.02470071804968E-15
      9.89501881233522E-16  -5.00000000000000E-01  -5.00000000000000E-01   0.00000000000000E+00   0.00000000000000E+00
      0.00000000000000E+00   0.00000000000000E+00   0.00000000000000E+00  -5.75513423967238E-16
      1.00000000000000E+00
      0.00000000000000E+00   0.00000000000000E+00   0.00000000000000E+00   0.00000000000000E+00  -8.87225983321873E-16
     -2.67352017273627E-16  -1.15457800059550E-15   4.76586129362892E-16   1.00000000000000E+00   1.00000000000000E+00
      0.00000000000000E+00   0.00000000000000E+00   1.15527091102297E-15   8.64788284939874E-20   1.15535738985147E-15
      1.01775915510925E-15  -5.00000000000000E-01  -5.00000000000000E-01   0.00000000000000E+00   0.00000000000000E+00
      0.00000000000000E+00   0.00000000000000E+00   0.00000000000000E+00  -5.87166937501539E-16
      0.00000000000000E+00
      0.00000000000000E+00   0.00000000000000E+00   0.00000000000000E+00   0.00000000000000E+00  -8.85656049180122E-16
     -2.67352021143174E-16  -1.15300807032330E-15   4.76586129181361E-16   1.00000000000000E+00   1.00000000000000E+00
      0.00000000000000E+00   0.00000000000000E+00   1.15573812678299E-15   8.64788284934378E-20   1.15582460561148E-15
      1.01775915500790E-15  -5.00000000000000E-01  -5.00000000000000E-01   0.00000000000000E+00   0.00000000000000E+00
      0.00000000000000E+00   0.00000000000000E+00   0.00000000000000E+00  -5.87166937857175E-16
      1.00000000000000E-03
      0.00000000000000E+00   0.00000000000000E+00   0.00000000000000E+00   0.00000000000000E+00  -9.03342221552857E-16
     -2.63995287169589E-16  -1.16733750872245E-15   4.76666275591636E-16   1.00000000000000E+00   1.00000000000000E+00
      0.00000000000000E+00   0.00000000000000E+00   1.15263781997310E-15   8.64793043333257E-20   1.15272429927743E-15
      1.01772624854567E-15  -4.98000000000000E-01  -4.98000000000000E-01   0.00000000000000E+00   0.00000000000000E+00
      0.00000000000000E+00   0.00000000000000E+00   0.00000000000000E+00  -5.84764417521886E-16
      2.14666666666667E-03
      0.00000000000000E+00   0.00000000000000E+00   0.00000000000000E+00   0.00000000000000E+00  -8.92485538114103E-16
     -2.60144760994539E-16  -1.15263029910864E-15   4.76760143849075E-16   1.00000000000000E+00   1.00000000000000E+00
      0.00000000000000E+00   0.00000000000000E+00   1.15265754985295E-15   8.64798573610224E-20   1.15274402971031E-15
      1.01768938934877E-15  -4.95706666666667E-01  -4.95706666666667E-01   0.00000000000000E+00   0.00000000000000E+00
      0.00000000000000E+00   0.00000000000000E+00   0.00000000000000E+00  -5.82007892278031E-16
      3.50737777777778E-03
      0.00000000000000E+00   0.00000000000000E+00   0.00000000000000E+00   0.00000000000000E+00  -8.98210637231970E-16
     -2.55556548109096E-16  -1.15376718534107E-15   4.76875191285215E-16   1.00000000000000E+00   1.00000000000000E+00
      0.00000000000000E+00   0.00000000000000E+00   1.15315258052774E-15   8.64805266896311E-20   1.15323906105443E-15
      1.01764737348791E-15  -4.92985244444444E-01  -4.92985244444444E-01   0.00000000000000E+00   0.00000000000000E+00
      0.00000000000000E+00   0.00000000000000E+00   0.00000000000000E+00  -5.78732773063031E-16
      5.12208829629630E-03
      0.00000000000000E+00   0.00000000000000E+00   0.00000000000000E+00   0.00000000000000E+00  -9.02151001109179E-16
     -2.50091887138689E-16  -1.15224288824787E-15   4.77016774110792E-16   1.00000000000000E+00   1.00000000000000E+00
      0.00000000000000E+00   0.00000000000000E+00   1.15187194216952E-15   8.64813390838048E-20   1.15195842350861E-15
      1.01759988113991E-15  -4.89755823407407E-01  -4.89755823407407E-01   0.00000000000000E+00   0.00000000000000E+00
      0.00000000000000E+00   0.00000000000000E+00   0.00000000000000E+00  -5.74840857523696E-16
      7.03821144493827E-03
      0.00000000000000E+00   0.00000000000000E+00   0.00000000000000E+00   0.00000000000000E+00  -9.06937165666609E-16
     -2.43584256162728E-16  -1.15052142182934E-15   4.77192046986866E-16   1.00000000000000E+00   1.00000000000000E+00
      0.00000000000000E+00   0.00000000000000E+00   1.15084025939134E-15   8.64823290439018E-20   1.15092674172038E-15
      1.01754691482158E-15  -4.85923577110123E-01  -4.85923577110123E-01   0.00000000000000E+00   0.00000000000000E+00
      0.00000000000000E+00   0.00000000000000E+00   0.00000000000000E+00  -5.70214647224263E-16
      9.31201091466008E-03
      0.00000000000000E+00   0.00000000000000E+00   0.00000000000000E+00   0.00000000000000E+00  -9.15065468489142E-16
     -2.35836360666612E-16  -1.15090182915575E-15   4.77410609137623E-16   1.00000000000000E+00   1.00000000000000E+00
      0.00000000000000E+00   0.00000000000000E+00   1.14922005968388E-15   8.64835413121602E-20   1.14930654322519E-15
      1.01748900312827E-15  -4.81375978170680E-01  -4.81375978170680E-01   0.00000000000000E+00   0.00000000000000E+00
      0.00000000000000E+00   0.00000000000000E+00   0.00000000000000E+00  -5.64713412816714E-16
      1.20102529520633E-02
      0.00000000000000E+00   0.00000000000000E+00   0.00000000000000E+00   0.00000000000000E+00  -9.23118879846184E-16
     -2.26617636644091E-16  -1.14973651649028E-15   4.77685477271217E-16   1.00000000000000E+00   1.00000000000000E+00
      0.00000000000000E+00   0.00000000000000E+00   1.14931738886739E-15   8.64850345109168E-20   1.14940387390190E-15
      1.01742754403531E-15  -4.75979494095873E-01  -4.75979494095873E-01   0.00000000000000E+00   0.00000000000000E+00
      0.00000000000000E+00   0.00000000000000E+00   0.00000000000000E+00  -5.58168249606215E-16
      1.52121668364484E-02
      0.00000000000000E+00   0.00000000000000E+00   0.00000000000000E+00   0.00000000000000E+00  -9.33085098976310E-16
     -2.15663768067508E-16  -1.14874886704382E-15   4.78034556667179E-16   1.00000000000000E+00   1.00000000000000E+00
      0.00000000000000E+00   0.00000000000000E+00   1.14838317033910E-15   8.64868864638994E-20   1.14846965722556E-15
      1.01736537010677E-15  -4.69575666327103E-01  -4.69575666327103E-01   0.00000000000000E+00   0.00000000000000E+00
      0.00000000000000E+00   0.00000000000000E+00   0.00000000000000E+00  -5.50375778651134E-16
      1.90117713125855E-02
      0.00000000000000E+00   0.00000000000000E+00   0.00000000000000E+00   0.00000000000000E+00  -9.64193562097875E-16
     -2.02684330948968E-16  -1.16687789304684E-15   4.78482692080667E-16   1.00000000000000E+00   1.00000000000000E+00
      0.00000000000000E+00   0.00000000000000E+00   1.14335668185551E-15   8.64892014752338E-20   1.14344317105699E-15
      1.01730756546876E-15  -4.61976457374829E-01  -4.61976457374829E-01   0.00000000000000E+00   0.00000000000000E+00
      0.00000000000000E+00   0.00000000000000E+00   0.00000000000000E+00  -5.41090341093328E-16
      2.35206352909348E-02
      0.00000000000000E+00   0.00000000000000E+00   0.00000000000000E+00   0.00000000000000E+00  -9.61508730696497E-16
     -1.87368950473968E-16  -1.14887768117047E-15   4.79065633188826E-16   1.00000000000000E+00   1.00000000000000E+00
      0.00000000000000E+00   0.00000000000000E+00   1.14472557627325E-15   8.64921236233832E-20   1.14481206839687E-15
      1.01726325954818E-15  -4.52958729418130E-01  -4.52958729418130E-01   0.00000000000000E+00   0.00000000000000E+00
      0.00000000000000E+00   0.00000000000000E+00   0.00000000000000E+00  -5.30012143191536E-16
      2.88110356921979E-02
      0.00000000000000E+00   0.00000000000000E+00   0.00000000000000E+00   0.00000000000000E+00  -9.92967846454816E-16
     -1.69655670291017E-16  -1.16262351674583E-15   4.79824016205531E-16   1.00000000000000E+00   1.00000000000000E+00
      0.00000000000000E+00   0.00000000000000E+00   1.14113245350139E-15   8.64958040818666E-20   1.14121894930547E-15
      1.01724679103918E-15  -4.42377928615604E-01  -4.42377928615604E-01   0.00000000000000E+00   0.00000000000000E+00
      0.00000000000000E+00   0.00000000000000E+00   0.00000000000000E+00  -5.16926084824235E-16
      3.50184388296801E-02
      0.00000000000000E+00   0.00000000000000E+00   0.00000000000000E+00   0.00000000000000E+00  -9.97736803076270E-16
     -1.49428760042419E-16  -1.14716556311869E-15   4.80823440795888E-16   1.00000000000000E+00   1.00000000000000E+00
      0.00000000000000E+00   0.00000000000000E+00   1.14098499170762E-15   8.65004882627202E-20   1.14107149219588E-15
      1.01728033263868E-15  -4.29963122340640E-01  -4.29963122340640E-01   0.00000000000000E+00   0.00000000000000E+00
      0.00000000000000E+00   0.00000000000000E+00   0.00000000000000E+00  -5.01439478832867E-16
      4.22190264691593E-02
      0.00000000000000E+00   0.00000000000000E+00   0.00000000000000E+00   0.00000000000000E+00  -1.03375863585679E-15
     -1.27081693938227E-16  -1.16084032979502E-15   4.82137794951316E-16   1.00000000000000E+00   1.00000000000000E+00