DF-ISE text

Info {
  version   = 1.0
  type      = xyplot
  datasets  = [
    "time"
    "S OuterVoltage" "S InnerVoltage" "S QuasiFermiPotential" "S DisplacementCurrent" "S eCurrent"
    "S hCurrent" "S TotalCurrent" "S Charge" "D OuterVoltage" "D InnerVoltage"
    "D QuasiFermiPotential" "D DisplacementCurrent" "D eCurrent" "D hCurrent" "D TotalCurrent"
    "D Charge" "G OuterVoltage" "G InnerVoltage" "G QuasiFermiPotential" "G DisplacementCurrent"
    "G eCurrent" "G hCurrent" "G TotalCurrent" "G Charge" ]
  functions = [
    Time
    OuterVoltage InnerVoltage QuasiFermiPotential DisplacementCurrent eCurrent
    hCurrent TotalCurrent Charge OuterVoltage InnerVoltage
    QuasiFermiPotential DisplacementCurrent eCurrent hCurrent TotalCurrent
    Charge OuterVoltage InnerVoltage QuasiFermiPotential DisplacementCurrent
    eCurrent hCurrent TotalCurrent Charge ]
}

Data {
      0.00000000000000E+00
      0.00000000000000E+00   0.00000000000000E+00   0.00000000000000E+00   0.00000000000000E+00   3.49359273560928E-19
     -5.41681609167775E-34   3.49359273560927E-19   6.28583354191754E-16   0.00000000000000E+00   0.00000000000000E+00
      0.00000000000000E+00   0.00000000000000E+00   6.97622477701173E-19  -4.89946909206879E-34   6.97622477701173E-19
      8.27421868897140E-16  -5.00000000000000E-01  -5.00000000000000E-01   0.00000000000000E+00   0.00000000000000E+00
      0.00000000000000E+00   0.00000000000000E+00   0.00000000000000E+00  -3.11894334542057E-16
      0.00000000000000E+00
      0.00000000000000E+00   0.00000000000000E+00   0.00000000000000E+00   0.00000000000000E+00   4.54167056162545E-18
     -2.29177728798265E-29   4.54167056160253E-18   6.28583352281423E-16   0.00000000000000E+00   0.00000000000000E+00
      0.00000000000000E+00   0.00000000000000E+00   1.74405619628467E-18  -2.29833922075537E-29   1.74405619626168E-18
      8.27421868245760E-16  -5.00000000000000E-01  -5.00000000000000E-01   0.00000000000000E+00   0.00000000000000E+00
      0.00000000000000E+00   0.00000000000000E+00   0.00000000000000E+00  -3.11894335973767E-16
      1.00000000000000E-03
      0.00000000000000E+00   0.00000000000000E+00   0.00000000000000E+00   0.00000000000000E+00  -9.08617379228796E-18
     -8.80326145867198E-22  -9.08705411843383E-18   6.28349625978686E-16   1.00000000000000E-03   1.00000000000000E-03
      0.00000000000000E+00   0.00000000000000E+00   7.16451605776338E-14   1.01181923403312E-21   7.16451615894531E-14
      8.27822104736487E-16  -5.00000000000000E-01  -5.00000000000000E-01   0.00000000000000E+00   0.00000000000000E+00
      0.00000000000000E+00   0.00000000000000E+00   0.00000000000000E+00  -3.12488924872344E-16
      2.18666666666667E-03
      0.00000000000000E+00   0.00000000000000E+00   0.00000000000000E+00   0.00000000000000E+00  -5.94322971439092E-18
     -1.94113339007222E-21  -5.94517084778099E-18   6.28073335709581E-16   2.18666666666667E-03   2.18666666666667E-03
      0.00000000000000E+00   0.00000000000000E+00   5.92550531668272E-18   2.18959773724668E-21   5.92769491441996E-18
      8.28298172940052E-16  -5.00000000000000E-01  -5.00000000000000E-01   0.00000000000000E+00   0.00000000000000E+00
      0.00000000000000E+00   0.00000000000000E+00   0.00000000000000E+00  -3.13192260403731E-16
      3.61066666666667E-03
      0.00000000000000E+00   0.00000000000000E+00   0.00000000000000E+00   0.00000000000000E+00  -1.43395815832953E-17
     -3.23768917460920E-21  -1.43428192724699E-17   6.27743261799494E-16   3.61066666666667E-03   3.61066666666667E-03
      0.00000000000000E+00   0.00000000000000E+00  -3.47942548803251E-19   3.57045271146677E-21  -3.44372096091784E-19
      8.28871005987812E-16  -5.00000000000000E-01  -5.00000000000000E-01   0.00000000000000E+00   0.00000000000000E+00
      0.00000000000000E+00   0.00000000000000E+00   0.00000000000000E+00  -3.14033155318487E-16
      5.31946666666667E-03
      0.00000000000000E+00   0.00000000000000E+00   0.00000000000000E+00   0.00000000000000E+00  -1.43470239780720E-17
     -4.82763242777718E-21  -1.43518516104997E-17   6.27349374990177E-16   5.31946666666667E-03   5.31946666666667E-03
      0.00000000000000E+00   0.00000000000000E+00   1.14898624909158E-17   5.18189557060826E-21   1.14950443864864E-17
      8.29560719214829E-16  -5.00000000000000E-01  -5.00000000000000E-01   0.00000000000000E+00   0.00000000000000E+00
      0.00000000000000E+00   0.00000000000000E+00   0.00000000000000E+00  -3.15037594335986E-16
      7.34724266666667E-03
      0.00000000000000E+00   0.00000000000000E+00   0.00000000000000E+00   0.00000000000000E+00  -1.78570403516982E-17
     -6.76374722625931E-21  -1.78638040989244E-17   6.26884969716474E-16   7.34724266666667E-03   7.34724266666667E-03
      0.00000000000000E+00   0.00000000000000E+00   1.70483474395142E-17   7.03077729202804E-21   1.70553782168062E-17
      8.30382335953751E-16  -5.00000000000000E-01  -5.00000000000000E-01   0.00000000000000E+00   0.00000000000000E+00
      0.00000000000000E+00   0.00000000000000E+00   0.00000000000000E+00  -3.16223195689187E-16
      9.75353685333333E-03
      0.00000000000000E+00   0.00000000000000E+00   0.00000000000000E+00   0.00000000000000E+00  -2.31254099774961E-17
     -9.13205628890088E-21  -2.31345420337850E-17   6.26338101439610E-16   9.75353685333333E-03   9.75353685333333E-03
      0.00000000000000E+00   0.00000000000000E+00   2.39861485623078E-17   9.13808300255607E-21   2.39952866453103E-17
      8.31361752071617E-16  -5.00000000000000E-01  -5.00000000000000E-01   0.00000000000000E+00   0.00000000000000E+00
      0.00000000000000E+00   0.00000000000000E+00   0.00000000000000E+00  -3.17621213421230E-16
      1.26090059548444E-02
      0.00000000000000E+00   0.00000000000000E+00   0.00000000000000E+00   0.00000000000000E+00  -3.36646681099040E-17
     -1.20444153465876E-20  -3.36767125252505E-17   6.25695041773147E-16   1.26090059548444E-02   1.26090059548444E-02
      0.00000000000000E+00   0.00000000000000E+00   2.39618585025813E-17   1.15206880826194E-20   2.39733791906639E-17
      8.32530159668726E-16  -5.00000000000000E-01  -5.00000000000000E-01   0.00000000000000E+00   0.00000000000000E+00
      0.00000000000000E+00   0.00000000000000E+00   0.00000000000000E+00  -3.19267798526553E-16
      1.59974959553043E-02
      0.00000000000000E+00   0.00000000000000E+00   0.00000000000000E+00   0.00000000000000E+00  -3.12407851286962E-17
     -1.56478573603994E-20  -3.12564329860566E-17   6.24940138833988E-16   1.59974959553043E-02   1.59974959553043E-02
      0.00000000000000E+00   0.00000000000000E+00   3.53780972268419E-17   1.41884309664860E-20   3.53922856578084E-17
      8.33925233934393E-16  -5.00000000000000E-01  -5.00000000000000E-01   0.00000000000000E+00   0.00000000000000E+00
      0.00000000000000E+00   0.00000000000000E+00   0.00000000000000E+00  -3.21204509020643E-16
      2.00185040891833E-02
      0.00000000000000E+00   0.00000000000000E+00   0.00000000000000E+00   0.00000000000000E+00  -4.95497771958761E-17
     -2.01380293064843E-20  -4.95699152251826E-17   6.24055702486341E-16   2.00185040891833E-02   2.00185040891833E-02
      0.00000000000000E+00   0.00000000000000E+00   4.12139881404466E-17   1.71403105628496E-20   4.12311284510095E-17
      8.35592591918042E-16  -5.00000000000000E-01  -5.00000000000000E-01   0.00000000000000E+00   0.00000000000000E+00
      0.00000000000000E+00   0.00000000000000E+00   0.00000000000000E+00  -3.23478808729369E-16
      2.47901004080531E-02
      0.00000000000000E+00   0.00000000000000E+00   0.00000000000000E+00   0.00000000000000E+00  -5.20795700954855E-17
     -2.57788784721160E-20  -5.21053489739576E-17   6.23021914330490E-16   2.47901004080531E-02   2.47901004080531E-02
      0.00000000000000E+00   0.00000000000000E+00   5.08218205621201E-17   2.03598292405160E-20   5.08421803913606E-17
      8.37587567238703E-16  -5.00000000000000E-01  -5.00000000000000E-01   0.00000000000000E+00   0.00000000000000E+00
      0.00000000000000E+00   0.00000000000000E+00   0.00000000000000E+00  -3.26144562194680E-16
      3.04523947064452E-02
      0.00000000000000E+00   0.00000000000000E+00   0.00000000000000E+00   0.00000000000000E+00  -7.15444721209331E-17
     -3.29310797949998E-20  -7.15774032007281E-17   6.21816912439209E-16   3.04523947064452E-02   3.04523947064452E-02
      0.00000000000000E+00   0.00000000000000E+00   5.86496708044666E-17   2.38100832103882E-20   5.86734808876770E-17
      8.39977507601142E-16  -5.00000000000000E-01  -5.00000000000000E-01   0.00000000000000E+00   0.00000000000000E+00
      0.00000000000000E+00   0.00000000000000E+00   0.00000000000000E+00  -3.29262227208914E-16
      3.71716506072039E-02
      0.00000000000000E+00   0.00000000000000E+00   0.00000000000000E+00   0.00000000000000E+00  -8.57973318243485E-17
     -4.20935071490540E-20  -8.58394253314976E-17   6.20417125387260E-16   3.71716506072039E-02   3.71716506072039E-02
      0.00000000000000E+00   0.00000000000000E+00   7.74273204009124E-17   2.74292230134794E-20   7.74547496239259E-17
      8.42844730615809E-16  -5.00000000000000E-01  -5.00000000000000E-01   0.00000000000000E+00   0.00000000000000E+00
      0.00000000000000E+00   0.00000000000000E+00   0.00000000000000E+00  -3.32898603652880E-16
      4.50555775307607E-02
      0.00000000000000E+00   0.00000000000000E+00   0.00000000000000E+00   0.00000000000000E+00  -1.00128335809994E-16
     -5.38303969533329E-20  -1.00182166206948E-16   6.18815137492572E-16   4.50555775307607E-02   4.50555775307607E-02
      0.00000000000000E+00   0.00000000000000E+00   9.57200882682733E-17   3.10880998448593E-20   9.57511763681181E-17
      8.46250550412976E-16  -5.00000000000000E-01  -5.00000000000000E-01   0.00000000000000E+00   0.00000000000000E+00
      0.00000000000000E+00   0.00000000000000E+00   0.00000000000000E+00  -3.37080529091870E-16
      5.43060517877341E-02
      0.00000000000000E+00   0.00000000000000E+00   0.00000000000000E+00   0.00000000000000E+00  -1.21999692327388E-16
     -6.90380009862131E-20  -1.22068730328374E-16   6.16989905002037E-16   5.43060517877341E-02   5.43060517877341E-02
      0.00000000000000E+00   0.00000000000000E+00   1.20330783418063E-16   3.46777701725681E-20   1.20365461188236E-16
      8.50302465529374E-16  -5.00000000000000E-01  -5.00000000000000E-01   0.00000000000000E+00   0.00000000000000E+00
      0.00000000000000E+00   0.00000000000000E+00   0.00000000000000E+00  -3.41873347438205E-16
      6.51599415825828E-02
      0.00000000000000E+00   0.00000000000000E+00   0.00000000000000E+00   0.00000000000000E+00  -1.48643488928101E-16
     -8.89796898627042E-20  -1.48732468617964E-16   6.14921585125162E-16   6.51599415825828E-02   6.51599415825828E-02
      0.00000000000000E+00   0.00000000000000E+00   1.35813213276167E-16   3.80736138983214E-20   1.35851286890065E-16
      8.55131350687053E-16  -5.00000000000000E-01  -5.00000000000000E-01   0.00000000000000E+00   0.00000000000000E+00
      0.00000000000000E+00   0.00000000000000E+00   0.00000000000000E+00  -3.47343703647557E-16
      7.78951722752053E-02
      0.00000000000000E+00   0.00000000000000E+00   0.00000000000000E+00   0.00000000000000E+00  -1.64790613722640E-16
     -1.15434076874802E-19  -1.64906047799515E-16   6.12594344463571E-16   7.78951722752053E-02   7.78951722752053E-02
      0.00000000000000E+00   0.00000000000000E+00   1.60176556600973E-16   4.11478336906505E-20   1.60217704434664E-16
      8.60898011953953E-16  -5.00000000000000E-01  -5.00000000000000E-01   0.00000000000000E+00   0.00000000000000E+00
      0.00000000000000E+00   0.00000000000000E+00   0.00000000000000E+00  -3.53554472215516E-16
      9.26680398786474E-02
      0.00000000000000E+00   0.00000000000000E+00   0.00000000000000E+00   0.00000000000000E+00  -1.99344429226250E-16
     -1.50466076888975E-19  -1.99494895303139E-16   6.10028110394385E-16   9.26680398786474E-02   9.26680398786474E-02
      0.00000000000000E+00   0.00000000000000E+00   1.83775848197722E-16   4.37612921869830E-20   1.83819609489909E-16
      8.67721286248502E-16  -5.00000000000000E-01  -5.00000000000000E-01   0.00000000000000E+00   0.00000000000000E+00
      0.00000000000000E+00   0.00000000000000E+00   0.00000000000000E+00  -3.60481382133232E-16
      1.09804566298640E-01
      0.00000000000000E+00   0.00000000000000E+00   0.00000000000000E+00   0.00000000000000E+00  -2.20911634572568E-16
     -1.97060457521546E-19  -2.21108695030089E-16   6.07234341109414E-16   1.09804566298640E-01   1.09804566298640E-01
      0.00000000000000E+00   0.00000000000000E+00   2.16537193934119E-16   4.58559989941984E-20   2.16583049933113E-16
      8.75818707174193E-16  -5.00000000000000E-01  -5.00000000000000E-01   0.00000000000000E+00   0.00000000000000E+00
      0.00000000000000E+00   0.00000000000000E+00   0.00000000000000E+00  -3.68136858452980E-16
      1.29454449926899E-01
      0.00000000000000E+00   0.00000000000000E+00   0.00000000000000E+00   0.00000000000000E+00  -2.56391158846535E-16
     -2.58090488764543E-19  -2.56649249335299E-16   6.04280980476751E-16   1.29454449926899E-01   1.29454449926899E-01
      0.00000000000000E+00   0.00000000000000E+00   2.47504835794232E-16   4.74087814838813E-20   2.47552244575716E-16
      8.85350910851414E-16  -5.00000000000000E-01  -5.00000000000000E-01   0.00000000000000E+00   0.00000000000000E+00
      0.00000000000000E+00   0.00000000000000E+00   0.00000000000000E+00  -3.76398224716754E-16
      1.51986316487302E-01
      0.00000000000000E+00   0.00000000000000E+00   0.00000000000000E+00   0.00000000000000E+00  -2.97249556822273E-16
     -3.36567364306979E-19  -2.97586124186580E-16   6.01242474845010E-16   1.51986316487302E-01   1.51986316487302E-01
      0.00000000000000E+00   0.00000000000000E+00   2.85374070368921E-16   4.84803528092779E-20   2.85422550721730E-16
      8.96621933970792E-16  -5.00000000000000E-01  -5.00000000000000E-01   0.00000000000000E+00   0.00000000000000E+00
      0.00000000000000E+00   0.00000000000000E+00   0.00000000000000E+00  -3.85155362950999E-16
      1.77522431922425E-01
      0.00000000000000E+00   0.00000000000000E+00   0.00000000000000E+00   0.00000000000000E+00  -3.28594785673426E-16
     -4.32556588087229E-19  -3.29027342261513E-16   5.98269358842494E-16   1.77522431922425E-01   1.77522431922425E-01
      0.00000000000000E+00   0.00000000000000E+00   3.15419504160726E-16   4.91623631418846E-20   3.15468666523868E-16
      9.09851567051984E-16  -5.00000000000000E-01  -5.00000000000000E-01   0.00000000000000E+00   0.00000000000000E+00
      0.00000000000000E+00   0.00000000000000E+00   0.00000000000000E+00  -3.94116585946333E-16
      2.06463362748898E-01
      0.00000000000000E+00   0.00000000000000E+00   0.00000000000000E+00   0.00000000000000E+00  -3.57529415605960E-16
     -5.42476759769378E-19  -3.58071892365730E-16   5.95515391072864E-16   2.06463362748898E-01   2.06463362748898E-01
      0.00000000000000E+00   0.00000000000000E+00   3.50726920086392E-16   4.95784243639174E-20   3.50776498510756E-16
      9.25433307004969E-16  -5.00000000000000E-01  -5.00000000000000E-01   0.00000000000000E+00   0.00000000000000E+00
      0.00000000000000E+00   0.00000000000000E+00   0.00000000000000E+00  -4.03017744522031E-16
      2.38877205274548E-01
      0.00000000000000E+00   0.00000000000000E+00   0.00000000000000E+00   0.00000000000000E+00  -3.85003769722680E-16
     -6.55701769587520E-19  -3.85659471492268E-16   5.93165967801899E-16   2.38877205274548E-01   2.38877205274548E-01
      0.00000000000000E+00   0.00000000000000E+00   3.81650279997010E-16   4.98381656932309E-20   3.81700118162704E-16
      9.43572630501566E-16  -5.00000000000000E-01  -5.00000000000000E-01   0.00000000000000E+00   0.00000000000000E+00
      0.00000000000000E+00   0.00000000000000E+00   0.00000000000000E+00  -4.11495148723846E-16
      2.74748524336268E-01
      0.00000000000000E+00   0.00000000000000E+00   0.00000000000000E+00   0.00000000000000E+00  -4.14927443223535E-16
     -7.58181306931976E-19  -4.15685624530467E-16   5.91342669544683E-16   2.74748524336268E-01   2.74748524336268E-01
      0.00000000000000E+00   0.00000000000000E+00   4.03522389971410E-16   5.00256818517835E-20   4.03572415653262E-16
      9.64348558570365E-16  -5.00000000000000E-01  -5.00000000000000E-01   0.00000000000000E+00   0.00000000000000E+00
      0.00000000000000E+00   0.00000000000000E+00   0.00000000000000E+00  -4.19307563015698E-16
      3.14446117431237E-01
      0.00000000000000E+00   0.00000000000000E+00   0.00000000000000E+00   0.00000000000000E+00  -4.29614728898194E-16
     -8.39813965918176E-19  -4.30454542864112E-16   5.90047819102351E-16   3.14446117431237E-01   3.14446117431237E-01
      0.00000000000000E+00   0.00000000000000E+00   4.18748288565600E-16   5.01912123256741E-20   4.18798479777925E-16
      9.87950922336484E-16  -5.00000000000000E-01  -5.00000000000000E-01   0.00000000000000E+00   0.00000000000000E+00
      0.00000000000000E+00   0.00000000000000E+00   0.00000000000000E+00  -4.26501279386568E-16
      3.58378120456337E-01
      0.00000000000000E+00   0.00000000000000E+00   0.00000000000000E+00   0.00000000000000E+00  -4.39668987937781E-16
     -8.97433871804837E-19  -4.40566421809586E-16   5.89203082246953E-16   3.58378120456337E-01   3.58378120456337E-01
      0.00000000000000E+00   0.00000000000000E+00   4.30861653019774E-16   5.03562479611695E-20   4.30912009267735E-16
      1.01449481453418E-15  -5.00000000000000E-01  -5.00000000000000E-01   0.00000000000000E+00   0.00000000000000E+00
      0.00000000000000E+00   0.00000000000000E+00   0.00000000000000E+00  -4.33291782630862E-16
      4.06996203804113E-01
      0.00000000000000E+00   0.00000000000000E+00   0.00000000000000E+00   0.00000000000000E+00  -4.42183924950260E-16
     -9.34452566906911E-19  -4.43118377517167E-16   5.88686894828432E-16   4.06996203804113E-01   4.06996203804113E-01
      0.00000000000000E+00   0.00000000000000E+00   4.35676412193364E-16   5.05268820287665E-20   4.35726939075393E-16
      1.04405051271720E-15  -5.00000000000000E-01  -5.00000000000000E-01   0.00000000000000E+00   0.00000000000000E+00
      0.00000000000000E+00   0.00000000000000E+00   0.00000000000000E+00  -4.39989344801520E-16
      4.60800216042320E-01
      0.00000000000000E+00   0.00000000000000E+00   0.00000000000000E+00   0.00000000000000E+00  -4.48266170461148E-16
     -9.57924327726173E-19  -4.49224094788875E-16   5.88369502054341E-16   4.60800216042320E-01   4.60800216042320E-01
      0.00000000000000E+00   0.00000000000000E+00   4.44776911568222E-16   5.07028447837085E-20   4.44827614413005E-16
      1.07666003742281E-15  -5.00000000000000E-01  -5.00000000000000E-01   0.00000000000000E+00   0.00000000000000E+00
      0.00000000000000E+00   0.00000000000000E+00   0.00000000000000E+00  -4.46930634685984E-16
      5.21060709749111E-01
      0.00000000000000E+00   0.00000000000000E+00   0.00000000000000E+00   0.00000000000000E+00  -4.58364890074759E-16
     -9.76787337133415E-19  -4.59341677411893E-16   5.88119706732042E-16   5.21060709749111E-01   5.21060709749111E-01
      0.00000000000000E+00   0.00000000000000E+00   4.58277100724745E-16   5.08834838748471E-20   4.58327984208620E-16
      1.11273106613521E-15  -5.00000000000000E-01  -5.00000000000000E-01   0.00000000000000E+00   0.00000000000000E+00
      0.00000000000000E+00   0.00000000000000E+00   0.00000000000000E+00  -4.54553386236714E-16
      5.89355935950141E-01
      0.00000000000000E+00   0.00000000000000E+00   0.00000000000000E+00   0.00000000000000E+00  -4.67059844963854E-16
     -1.00386705556162E-18  -4.68063712019416E-16   5.87768959305868E-16   5.89355935950141E-01   5.89355935950141E-01
      0.00000000000000E+00   0.00000000000000E+00   4.57572206238266E-16   5.10659099098238E-20   4.57623272148176E-16
      1.15258015450082E-15  -5.00000000000000E-01  -5.00000000000000E-01   0.00000000000000E+00   0.00000000000000E+00
      0.00000000000000E+00   0.00000000000000E+00   0.00000000000000E+00  -4.63421214341946E-16
      6.67667795327322E-01
      0.00000000000000E+00   0.00000000000000E+00   0.00000000000000E+00   0.00000000000000E+00  -4.76482695565756E-16
     -1.07631185761608E-18  -4.77559007423372E-16   5.86872915497875E-16   6.67667795327322E-01   6.67667795327322E-01
      0.00000000000000E+00   0.00000000000000E+00   4.68229101864889E-16   5.12422256235589E-20   4.68280344090513E-16
      1.19598225560849E-15  -5.00000000000000E-01  -5.00000000000000E-01   0.00000000000000E+00   0.00000000000000E+00
      0.00000000000000E+00   0.00000000000000E+00   0.00000000000000E+00  -4.74714484679368E-16
      7.54332919704735E-01
      0.00000000000000E+00   0.00000000000000E+00   0.00000000000000E+00   0.00000000000000E+00  -5.10234914530392E-16
     -1.34858806622879E-18  -5.11583502596621E-16   5.83952003834736E-16   7.54332919704735E-01   7.54332919704735E-01
      0.00000000000000E+00   0.00000000000000E+00   5.11034575115401E-16   5.13902583903330E-20   5.11085965373791E-16
      1.23928756759022E-15  -5.00000000000000E-01  -5.00000000000000E-01   0.00000000000000E+00   0.00000000000000E+00
      0.00000000000000E+00   0.00000000000000E+00   0.00000000000000E+00  -4.91193085862350E-16
      8.47931254032342E-01
      0.00000000000000E+00   0.00000000000000E+00   0.00000000000000E+00   0.00000000000000E+00  -6.24993052605397E-16
     -2.35162094981795E-18  -6.27344673555215E-16   5.76638732450508E-16   8.47931254032342E-01   8.47931254032342E-01
      0.00000000000000E+00   0.00000000000000E+00   6.26334445463853E-16   5.15028164198892E-20   6.26385948280273E-16
      1.27964658996879E-15  -5.00000000000000E-01  -5.00000000000000E-01   0.00000000000000E+00   0.00000000000000E+00
      0.00000000000000E+00   0.00000000000000E+00   0.00000000000000E+00  -5.17231119190465E-16
      9.47769477315122E-01
      0.00000000000000E+00   0.00000000000000E+00   0.00000000000000E+00   0.00000000000000E+00  -7.62859445989927E-16
     -4.28648395424383E-18  -7.67145929944171E-16   5.68612623088202E-16   9.47769477315122E-01   9.47769477315122E-01
      0.00000000000000E+00   0.00000000000000E+00   7.67078828613201E-16   5.16041169412816E-20   7.67130432730143E-16
      1.32037474007795E-15  -5.00000000000000E-01  -5.00000000000000E-01   0.00000000000000E+00   0.00000000000000E+00
      0.00000000000000E+00   0.00000000000000E+00   0.00000000000000E+00  -5.45526712147973E-16
      1.00000000000000E+00
      0.00000000000000E+00   0.00000000000000E+00   0.00000000000000E+00   0.00000000000000E+00  -8.19171862033542E-16
     -5.07549747699620E-18  -8.24247359510538E-16   5.66335500436471E-16   1.00000000000000E+00   1.00000000000000E+00
      0.00000000000000E+00   0.00000000000000E+00   8.19005212393864E-16   5.16576717149778E-20   8.19056870065579E-16
      1.34232694183343E-15  -5.00000000000000E-01  -5.00000000000000E-01   0.00000000000000E+00   0.00000000000000E+00
      0.00000000000000E+00   0.00000000000000E+00   0.00000000000000E+00  -5.56737107330147E-16
      0.00000000000000E+00
      0.00000000000000E+00   0.00000000000000E+00   0.00000000000000E+00   0.00000000000000E+00  -8.13478364505319E-16
     -5.07533101826464E-18  -8.18553695523583E-16   5.66335943135591E-16   1.00000000000000E+00   1.00000000000000E+00
      0.00000000000000E+00   0.00000000000000E+00   8.20903453085009E-16   5.16576726402901E-20   8.20955110757649E-16
      1.34232720286974E-15  -5.00000000000000E-01  -5.00000000000000E-01   0.00000000000000E+00   0.00000000000000E+00
      0.00000000000000E+00   0.00000000000000E+00   0.00000000000000E+00  -5.56736271574577E-16
      1.00000000000000E-03
      0.00000000000000E+00   0.00000000000000E+00   0.00000000000000E+00   0.00000000000000E+00  -8.20588735059142E-16
     -5.04226855620774E-18  -8.25631003615349E-16   5.66395936077052E-16   1.00000000000000E+00   1.00000000000000E+00
      0.00000000000000E+00   0.00000000000000E+00   8.12848099331724E-16   5.16578546369900E-20   8.12899757186361E-16
      1.34211184967409E-15  -4.98000000000000E-01  -4.98000000000000E-01   0.00000000000000E+00   0.00000000000000E+00
      0.00000000000000E+00   0.00000000000000E+00   0.00000000000000E+00  -5.54293701247943E-16
      2.16000000000000E-03
      0.00000000000000E+00   0.00000000000000E+00   0.00000000000000E+00   0.00000000000000E+00  -8.17059124117246E-16
     -5.00487595526743E-18  -8.22064000072513E-16   5.66463573647441E-16   1.00000000000000E+00   1.00000000000000E+00
      0.00000000000000E+00   0.00000000000000E+00   8.19504668441901E-16   5.16580618087083E-20   8.19556326503709E-16
      1.34186026074979E-15  -4.95680000000000E-01  -4.95680000000000E-01   0.00000000000000E+00   0.00000000000000E+00
      0.00000000000000E+00   0.00000000000000E+00   0.00000000000000E+00  -5.51465087760298E-16
      3.53653333333333E-03
      0.00000000000000E+00   0.00000000000000E+00   0.00000000000000E+00   0.00000000000000E+00  -8.06680489911162E-16
     -4.96082146560622E-18  -8.11641311376768E-16   5.66543819598215E-16   1.00000000000000E+00   1.00000000000000E+00
      0.00000000000000E+00   0.00000000000000E+00   8.18096671323524E-16   5.16583078133165E-20   8.18148329631337E-16
      1.34156082431402E-15  -4.92926933333333E-01  -4.92926933333333E-01   0.00000000000000E+00   0.00000000000000E+00
      0.00000000000000E+00   0.00000000000000E+00   0.00000000000000E+00  -5.48110003714331E-16
      5.17001955555556E-03
      0.00000000000000E+00   0.00000000000000E+00   0.00000000000000E+00   0.00000000000000E+00  -8.16761594264286E-16
     -4.90870204124711E-18  -8.21670296305533E-16   5.66639805519239E-16   1.00000000000000E+00   1.00000000000000E+00
      0.00000000000000E+00   0.00000000000000E+00   8.13133151445045E-16   5.16586016091449E-20   8.13184810046654E-16
      1.34120470819639E-15  -4.89659960888889E-01  -4.89659960888889E-01   0.00000000000000E+00   0.00000000000000E+00
      0.00000000000000E+00   0.00000000000000E+00   0.00000000000000E+00  -5.44129325504427E-16
      7.10842320592592E-03
      0.00000000000000E+00   0.00000000000000E+00   0.00000000000000E+00   0.00000000000000E+00  -8.10121989766559E-16
     -4.84722142794579E-18  -8.14969211194505E-16   5.66754396706668E-16   1.00000000000000E+00   1.00000000000000E+00
      0.00000000000000E+00   0.00000000000000E+00   8.18610804763463E-16   5.16589520841767E-20   8.18662463715548E-16
      1.34078078526082E-15  -4.85783153588148E-01  -4.85783153588148E-01   0.00000000000000E+00   0.00000000000000E+00
      0.00000000000000E+00   0.00000000000000E+00   0.00000000000000E+00  -5.39407282960865E-16
      9.40866220436543E-03
      0.00000000000000E+00   0.00000000000000E+00   0.00000000000000E+00   0.00000000000000E+00  -8.18992255703143E-16
     -4.77494151232704E-18  -8.23767197215470E-16   5.66890908175612E-16   1.00000000000000E+00   1.00000000000000E+00
      0.00000000000000E+00   0.00000000000000E+00   8.17687006233692E-16   5.16593696594326E-20   8.17738665603352E-16
      1.34027559946887E-15  -4.81182675591269E-01  -4.81182675591269E-01   0.00000000000000E+00   0.00000000000000E+00
      0.00000000000000E+00   0.00000000000000E+00   0.00000000000000E+00  -5.33807005859883E-16
      1.21382791491803E-02
      0.00000000000000E+00   0.00000000000000E+00   0.00000000000000E+00   0.00000000000000E+00  -8.10000991311076E-16
     -4.69015570589738E-18  -8.14691147016973E-16   5.67053542846927E-16   1.00000000000000E+00   1.00000000000000E+00
      0.00000000000000E+00   0.00000000000000E+00   8.11549749662947E-16   5.16598673393549E-20   8.11601409530287E-16
      1.33967306066210E-15  -4.75723441701639E-01  -4.75723441701639E-01   0.00000000000000E+00   0.00000000000000E+00
      0.00000000000000E+00   0.00000000000000E+00   0.00000000000000E+00  -5.27166055434586E-16
      1.53774245903606E-02
      0.00000000000000E+00   0.00000000000000E+00   0.00000000000000E+00   0.00000000000000E+00  -8.11192006918328E-16
     -4.59090065996229E-18  -8.15782907578290E-16   5.67247504480829E-16   1.00000000000000E+00   1.00000000000000E+00
      0.00000000000000E+00   0.00000000000000E+00   8.11584187537855E-16   5.16604611189764E-20   8.11635847998974E-16
      1.33895381692151E-15  -4.69245150819279E-01  -4.69245150819279E-01   0.00000000000000E+00   0.00000000000000E+00
      0.00000000000000E+00   0.00000000000000E+00   0.00000000000000E+00  -5.19291936167169E-16
      1.92212105138946E-02
      0.00000000000000E+00   0.00000000000000E+00   0.00000000000000E+00   0.00000000000000E+00  -8.09668208596537E-16
     -4.47498937596018E-18  -8.14143197972497E-16   5.67479116424689E-16   1.00000000000000E+00   1.00000000000000E+00
      0.00000000000000E+00   0.00000000000000E+00   8.19448373224406E-16   5.16611704529214E-20   8.19500034394859E-16
      1.33809447128211E-15  -4.61557578972211E-01  -4.61557578972211E-01   0.00000000000000E+00   0.00000000000000E+00
      0.00000000000000E+00   0.00000000000000E+00   0.00000000000000E+00  -5.09956853499334E-16
      2.37825031431549E-02
      0.00000000000000E+00   0.00000000000000E+00   0.00000000000000E+00   0.00000000000000E+00  -8.12989519151956E-16
     -4.34004704003107E-18  -8.17329566191987E-16   5.67756025352894E-16   1.00000000000000E+00   1.00000000000000E+00
      0.00000000000000E+00   0.00000000000000E+00   8.21863121197221E-16   5.16620189710471E-20   8.21914783216192E-16
      1.33706666074588E-15  -4.52434993713690E-01  -4.52434993713690E-01   0.00000000000000E+00   0.00000000000000E+00
      0.00000000000000E+00   0.00000000000000E+00   0.00000000000000E+00  -4.98891431457803E-16
      2.91952370632105E-02
      0.00000000000000E+00   0.00000000000000E+00   0.00000000000000E+00   0.00000000000000E+00  -8.20752499675888E-16
     -4.18354105876533E-18  -8.24936040734653E-16   5.68087561624278E-16   1.00000000000000E+00   1.00000000000000E+00