DF-ISE text

Info {
  version   = 1.0
  type      = xyplot
  datasets  = [
    "time"
    "S OuterVoltage" "S InnerVoltage" "S QuasiFermiPotential" "S DisplacementCurrent" "S eCurrent"
    "S hCurrent" "S TotalCurrent" "S Charge" "D OuterVoltage" "D InnerVoltage"
    "D QuasiFermiPotential" "D DisplacementCurrent" "D eCurrent" "D hCurrent" "D TotalCurrent"
    "D Charge" "G OuterVoltage" "G InnerVoltage" "G QuasiFermiPotential" "G DisplacementCurrent"
    "G eCurrent" "G hCurrent" "G TotalCurrent" "G Charge" ]
  functions = [
    Time
    OuterVoltage InnerVoltage QuasiFermiPotential DisplacementCurrent eCurrent
    hCurrent TotalCurrent Charge OuterVoltage InnerVoltage
    QuasiFermiPotential DisplacementCurrent eCurrent hCurrent TotalCurrent
    Charge OuterVoltage InnerVoltage QuasiFermiPotential DisplacementCurrent
    eCurrent hCurrent TotalCurrent Charge ]
}

Data {
      0.00000000000000E+00
      0.00000000000000E+00   0.00000000000000E+00   0.00000000000000E+00   0.00000000000000E+00   7.32117151098080E-19
     -5.49852782521560E-35   7.32117151098080E-19   5.11331151047937E-16   0.00000000000000E+00   0.00000000000000E+00
      0.00000000000000E+00   0.00000000000000E+00   2.39041480978796E-18  -4.28258260517160E-35   2.39041480978796E-18
      6.74258481773572E-16  -5.00000000000000E-01  -5.00000000000000E-01   0.00000000000000E+00   0.00000000000000E+00
      0.00000000000000E+00   0.00000000000000E+00   0.00000000000000E+00  -3.94110941726606E-16
      0.00000000000000E+00
      0.00000000000000E+00   0.00000000000000E+00   0.00000000000000E+00   0.00000000000000E+00   3.37494431139257E-18
     -2.02642441700173E-31   3.37494431139237E-18   5.11331150585409E-16   0.00000000000000E+00   0.00000000000000E+00
      0.00000000000000E+00   0.00000000000000E+00  -1.26281712690449E-17  -2.02523540454491E-31  -1.26281712690451E-17
      6.74258481179597E-16  -5.00000000000000E-01  -5.00000000000000E-01   0.00000000000000E+00   0.00000000000000E+00
      0.00000000000000E+00   0.00000000000000E+00   0.00000000000000E+00  -3.94110941735576E-16
      1.00000000000000E-03
      0.00000000000000E+00   0.00000000000000E+00   0.00000000000000E+00   0.00000000000000E+00   1.29206797374793E-17
     -4.65621054952117E-23   1.29206331753738E-17   5.11297504775664E-16   1.00000000000000E-03   1.00000000000000E-03
      0.00000000000000E+00   0.00000000000000E+00   1.34170646381920E-17   3.03025200654437E-22   1.34173676633926E-17
      6.74609757536187E-16  -5.00000000000000E-01  -5.00000000000000E-01   0.00000000000000E+00   0.00000000000000E+00
      0.00000000000000E+00   0.00000000000000E+00   0.00000000000000E+00  -3.94378079719070E-16
      2.17333333333333E-03
      0.00000000000000E+00   0.00000000000000E+00   0.00000000000000E+00   0.00000000000000E+00   3.07063820306702E-18
     -1.00539375279637E-22   3.07053766369174E-18   5.11258552937016E-16   2.17333333333333E-03   2.17333333333333E-03
      0.00000000000000E+00   0.00000000000000E+00  -9.32773628367107E-18   6.46668541713336E-22  -9.32708961512936E-18
      6.75022151658656E-16  -5.00000000000000E-01  -5.00000000000000E-01   0.00000000000000E+00   0.00000000000000E+00
      0.00000000000000E+00   0.00000000000000E+00   0.00000000000000E+00  -3.94689589451028E-16
      3.56568888888889E-03
      0.00000000000000E+00   0.00000000000000E+00   0.00000000000000E+00   0.00000000000000E+00  -6.65020692586223E-18
     -1.63690473151193E-22  -6.65037061633538E-18   5.11213045674446E-16   3.56568888888889E-03   3.56568888888889E-03
      0.00000000000000E+00   0.00000000000000E+00  -4.31160945305789E-18   1.03828847927744E-21  -4.31057116457861E-18
      6.75511825270649E-16  -5.00000000000000E-01  -5.00000000000000E-01   0.00000000000000E+00   0.00000000000000E+00
      0.00000000000000E+00   0.00000000000000E+00   0.00000000000000E+00  -3.95056617208614E-16
      5.21795081481481E-03
      0.00000000000000E+00   0.00000000000000E+00   0.00000000000000E+00   0.00000000000000E+00  -1.86542569532156E-18
     -2.37388563198047E-22  -1.86566308388475E-18   5.11160016492955E-16   5.21795081481481E-03   5.21795081481481E-03
      0.00000000000000E+00   0.00000000000000E+00   8.74643961023814E-18   1.48107725564546E-21   8.74792068749379E-18
      6.76093288884101E-16  -5.00000000000000E-01  -5.00000000000000E-01   0.00000000000000E+00   0.00000000000000E+00
      0.00000000000000E+00   0.00000000000000E+00   0.00000000000000E+00  -3.95488578418625E-16
      7.17863496691358E-03
      0.00000000000000E+00   0.00000000000000E+00   0.00000000000000E+00   0.00000000000000E+00  -1.06411263546362E-17
     -3.23146151189398E-22  -1.06414495007874E-17   5.11098400890580E-16   7.17863496691358E-03   7.17863496691358E-03
      0.00000000000000E+00   0.00000000000000E+00   1.54910295188985E-18   1.97699847040588E-21   1.55107995036026E-18
      6.76783773076705E-16  -5.00000000000000E-01  -5.00000000000000E-01   0.00000000000000E+00   0.00000000000000E+00
      0.00000000000000E+00   0.00000000000000E+00   0.00000000000000E+00  -3.95996340295671E-16
      9.50531349407078E-03
      0.00000000000000E+00   0.00000000000000E+00   0.00000000000000E+00   0.00000000000000E+00  -1.84328070864168E-17
     -4.22609169645314E-22  -1.84332296955864E-17   5.11027037546214E-16   9.50531349407078E-03   9.50531349407078E-03
      0.00000000000000E+00   0.00000000000000E+00   2.33267479972737E-17   2.52612728851115E-21   2.33292741245622E-17
      6.77603727041259E-16  -5.00000000000000E-01  -5.00000000000000E-01   0.00000000000000E+00   0.00000000000000E+00
      0.00000000000000E+00   0.00000000000000E+00   0.00000000000000E+00  -3.96592418784254E-16
      1.22663053462973E-02
      0.00000000000000E+00   0.00000000000000E+00   0.00000000000000E+00   0.00000000000000E+00  -8.20580413896500E-18
     -5.37549257310218E-22  -8.20634168822231E-18   5.10944668758057E-16   1.22663053462973E-02   1.22663053462973E-02
      0.00000000000000E+00   0.00000000000000E+00  -1.01967407234524E-17   3.12586323658034E-21  -1.01936148602158E-17
      6.78577398399134E-16  -5.00000000000000E-01  -5.00000000000000E-01   0.00000000000000E+00   0.00000000000000E+00
      0.00000000000000E+00   0.00000000000000E+00   0.00000000000000E+00  -3.97291213890181E-16
      1.55426823442728E-02
      0.00000000000000E+00   0.00000000000000E+00   0.00000000000000E+00   0.00000000000000E+00   9.71547799822323E-18
     -6.69861315376551E-22   9.71480813690786E-18   5.10849935177284E-16   1.55426823442728E-02   1.55426823442728E-02
      0.00000000000000E+00   0.00000000000000E+00   6.82661743832564E-18   3.77006776969656E-21   6.83038750609534E-18
      6.79733501315870E-16  -5.00000000000000E-01  -5.00000000000000E-01   0.00000000000000E+00   0.00000000000000E+00
      0.00000000000000E+00   0.00000000000000E+00   0.00000000000000E+00  -3.98109306996808E-16
      1.94306497152037E-02
      0.00000000000000E+00   0.00000000000000E+00   0.00000000000000E+00   0.00000000000000E+00  -9.78262735708679E-18
     -8.21584511364679E-22  -9.78344894159816E-18   5.10741353936571E-16   1.94306497152037E-02   1.94306497152037E-02
      0.00000000000000E+00   0.00000000000000E+00  -7.84634908438925E-18   4.44823653032471E-21  -7.84190084785892E-18
      6.81105976134103E-16  -5.00000000000000E-01  -5.00000000000000E-01   0.00000000000000E+00   0.00000000000000E+00
      0.00000000000000E+00   0.00000000000000E+00   0.00000000000000E+00  -3.99065865487697E-16
      2.40443709953751E-02
      0.00000000000000E+00   0.00000000000000E+00   0.00000000000000E+00   0.00000000000000E+00  -3.66352534031369E-17
     -9.94984480217800E-22  -3.66362483876171E-17   5.10617259976251E-16   2.40443709953751E-02   2.40443709953751E-02
      0.00000000000000E+00   0.00000000000000E+00   3.68809437909633E-17   5.14489099078370E-21   3.68860886819540E-17
      6.82734837766235E-16  -5.00000000000000E-01  -5.00000000000000E-01   0.00000000000000E+00   0.00000000000000E+00
      0.00000000000000E+00   0.00000000000000E+00   0.00000000000000E+00  -4.00183233912912E-16
      2.95193202478451E-02
      0.00000000000000E+00   0.00000000000000E+00   0.00000000000000E+00   0.00000000000000E+00  -1.52836520983766E-17
     -1.19276711523495E-21  -1.52848448654919E-17   5.10475676404266E-16   2.95193202478451E-02   2.95193202478451E-02
      0.00000000000000E+00   0.00000000000000E+00   7.98649083509472E-18   5.83944768323710E-21   7.99233028277796E-18
      6.84667102079415E-16  -5.00000000000000E-01  -5.00000000000000E-01   0.00000000000000E+00   0.00000000000000E+00
      0.00000000000000E+00   0.00000000000000E+00   0.00000000000000E+00  -4.01487840767614E-16
      3.60162600274429E-02
      0.00000000000000E+00   0.00000000000000E+00   0.00000000000000E+00   0.00000000000000E+00  -1.30728207375974E-17
     -1.41855190098407E-21  -1.30742392894983E-17   5.10314057747088E-16   3.60162600274429E-02   3.60162600274429E-02
      0.00000000000000E+00   0.00000000000000E+00   3.53218298305258E-17   6.50684740951001E-21   3.53283366779353E-17
      6.86957767845048E-16  -5.00000000000000E-01  -5.00000000000000E-01   0.00000000000000E+00   0.00000000000000E+00
      0.00000000000000E+00   0.00000000000000E+00   0.00000000000000E+00  -4.03011628650937E-16
      4.37259618992322E-02
      0.00000000000000E+00   0.00000000000000E+00   0.00000000000000E+00   0.00000000000000E+00  -2.84347174941871E-17
     -1.67782471180345E-21  -2.84363953188989E-17   5.10128819406914E-16   4.37259618992322E-02   4.37259618992322E-02
      0.00000000000000E+00   0.00000000000000E+00   3.16828580561985E-17   7.11911967599418E-21   3.16899771758745E-17
      6.89670819150822E-16  -5.00000000000000E-01  -5.00000000000000E-01   0.00000000000000E+00   0.00000000000000E+00
      0.00000000000000E+00   0.00000000000000E+00   0.00000000000000E+00  -4.04794323141133E-16
      5.28748081204222E-02
      0.00000000000000E+00   0.00000000000000E+00   0.00000000000000E+00   0.00000000000000E+00  -2.79396872724088E-17
     -1.97973355998936E-21  -2.79416670059688E-17   5.09914528592367E-16   5.28748081204222E-02   5.28748081204222E-02
      0.00000000000000E+00   0.00000000000000E+00   3.07623905064346E-17   7.64771312621703E-21   3.07700382195608E-17
      6.92880202764610E-16  -5.00000000000000E-01  -5.00000000000000E-01   0.00000000000000E+00   0.00000000000000E+00
      0.00000000000000E+00   0.00000000000000E+00   0.00000000000000E+00  -4.06886990204271E-16
      6.36094543532852E-02
      0.00000000000000E+00   0.00000000000000E+00   0.00000000000000E+00   0.00000000000000E+00  -1.16403626273192E-17
     -2.33619772499264E-21  -1.16426988250442E-17   5.09665431946886E-16   6.36094543532852E-02   6.36094543532852E-02
      0.00000000000000E+00   0.00000000000000E+00   8.37489434331350E-18   8.06217187846107E-21   8.38295651519196E-18
      6.96628267116105E-16  -5.00000000000000E-01  -5.00000000000000E-01   0.00000000000000E+00   0.00000000000000E+00
      0.00000000000000E+00   0.00000000000000E+00   0.00000000000000E+00  -4.09329706941294E-16
      7.62047725998443E-02
      0.00000000000000E+00   0.00000000000000E+00   0.00000000000000E+00   0.00000000000000E+00  -3.07894800753722E-17
     -2.77319922817610E-21  -3.07922532746004E-17   5.09369099696826E-16   7.62047725998443E-02   7.62047725998443E-02
      0.00000000000000E+00   0.00000000000000E+00  -8.05549622247002E-18   8.34373275408445E-21  -8.04715248971593E-18
      7.00997336566137E-16  -5.00000000000000E-01  -5.00000000000000E-01   0.00000000000000E+00   0.00000000000000E+00
      0.00000000000000E+00   0.00000000000000E+00   0.00000000000000E+00  -4.12204203842581E-16
      9.09832793424738E-02
      0.00000000000000E+00   0.00000000000000E+00   0.00000000000000E+00   0.00000000000000E+00  -3.46465864252120E-17
     -3.33507966277037E-21  -3.46499215048748E-17   5.09006492467746E-16   9.09832793424738E-02   9.09832793424738E-02
      0.00000000000000E+00   0.00000000000000E+00   1.53936017691790E-17   8.47955202604658E-21   1.54020813212051E-17
      7.06079523587901E-16  -5.00000000000000E-01  -5.00000000000000E-01   0.00000000000000E+00   0.00000000000000E+00
      0.00000000000000E+00   0.00000000000000E+00   0.00000000000000E+00  -4.15621511347265E-16
      1.08323393920492E-01
      0.00000000000000E+00   0.00000000000000E+00   0.00000000000000E+00   0.00000000000000E+00  -3.97454572369362E-17
     -4.09460006672695E-21  -3.97495518370029E-17   5.08550139774677E-16   1.08323393920492E-01   1.08323393920492E-01
      0.00000000000000E+00   0.00000000000000E+00   4.65931110088533E-17   8.47615072431784E-21   4.66015871595776E-17
      7.11978237413794E-16  -5.00000000000000E-01  -5.00000000000000E-01   0.00000000000000E+00   0.00000000000000E+00
      0.00000000000000E+00   0.00000000000000E+00   0.00000000000000E+00  -4.19729105897637E-16
      1.28669128358701E-01
      0.00000000000000E+00   0.00000000000000E+00   0.00000000000000E+00   0.00000000000000E+00  -5.39638339758473E-17
     -5.16265191577450E-21  -5.39689966277631E-17   5.07964922184212E-16   1.28669128358701E-01   1.28669128358701E-01
      0.00000000000000E+00   0.00000000000000E+00   2.56197477533858E-17   8.36937553314809E-21   2.56281171289189E-17
      7.18812512838294E-16  -5.00000000000000E-01  -5.00000000000000E-01   0.00000000000000E+00   0.00000000000000E+00
      0.00000000000000E+00   0.00000000000000E+00   0.00000000000000E+00  -4.24708707984186E-16
      1.52541456766199E-01
      0.00000000000000E+00   0.00000000000000E+00   0.00000000000000E+00   0.00000000000000E+00  -6.18636109267887E-17
     -6.68328609726966E-21  -6.18702942128860E-17   5.07216934429204E-16   1.52541456766199E-01   1.52541456766199E-01
      0.00000000000000E+00   0.00000000000000E+00   4.88315399725343E-17   8.20085578661217E-21   4.88397408283209E-17
      7.26728358371728E-16  -5.00000000000000E-01  -5.00000000000000E-01   0.00000000000000E+00   0.00000000000000E+00
      0.00000000000000E+00   0.00000000000000E+00   0.00000000000000E+00  -4.30745156093460E-16
      1.80551655430996E-01
      0.00000000000000E+00   0.00000000000000E+00   0.00000000000000E+00   0.00000000000000E+00  -5.14750130442775E-17
     -8.77624827319844E-21  -5.14837892925507E-17   5.06297221791941E-16   1.80551655430996E-01   1.80551655430996E-01
      0.00000000000000E+00   0.00000000000000E+00   5.97630522313331E-17   8.00088567705143E-21   5.97710531170101E-17
      7.35921500276743E-16  -5.00000000000000E-01  -5.00000000000000E-01   0.00000000000000E+00   0.00000000000000E+00
      0.00000000000000E+00   0.00000000000000E+00   0.00000000000000E+00  -4.37942315746391E-16
      2.13416955197692E-01
      0.00000000000000E+00   0.00000000000000E+00   0.00000000000000E+00   0.00000000000000E+00  -7.98456277280387E-17
     -1.13873393257410E-20  -7.98570150673644E-17   5.05252991991574E-16   2.13416955197692E-01   2.13416955197692E-01
      0.00000000000000E+00   0.00000000000000E+00   8.44171756740038E-17   7.79795121369132E-21   8.44249736252175E-17
      7.46663624648530E-16  -5.00000000000000E-01  -5.00000000000000E-01   0.00000000000000E+00   0.00000000000000E+00
      0.00000000000000E+00   0.00000000000000E+00   0.00000000000000E+00  -4.46212680179453E-16
      2.51978906923948E-01
      0.00000000000000E+00   0.00000000000000E+00   0.00000000000000E+00   0.00000000000000E+00  -1.16855551682304E-16
     -1.41886614181292E-20  -1.16869740343722E-16   5.04173068303071E-16   2.51978906923948E-01   2.51978906923948E-01
      0.00000000000000E+00   0.00000000000000E+00   1.03555502954523E-16   7.65934466785404E-21   1.03563162299191E-16
      7.59290538436497E-16  -5.00000000000000E-01  -5.00000000000000E-01   0.00000000000000E+00   0.00000000000000E+00
      0.00000000000000E+00   0.00000000000000E+00   0.00000000000000E+00  -4.55328506940988E-16
      2.96710770926406E-01
      0.00000000000000E+00   0.00000000000000E+00   0.00000000000000E+00   0.00000000000000E+00  -1.33119776471280E-16
     -1.69394166758262E-20  -1.33136715887956E-16   5.03083107982216E-16   2.96710770926406E-01   2.96710770926406E-01
      0.00000000000000E+00   0.00000000000000E+00   1.53220519484238E-16   7.67535668226783E-21   1.53228194840921E-16
      7.73949009284661E-16  -5.00000000000000E-01  -5.00000000000000E-01   0.00000000000000E+00   0.00000000000000E+00
      0.00000000000000E+00   0.00000000000000E+00   0.00000000000000E+00  -4.65220343392686E-16
      3.48599733169256E-01
      0.00000000000000E+00   0.00000000000000E+00   0.00000000000000E+00   0.00000000000000E+00  -1.43995818953371E-16
     -1.98212544738291E-20  -1.44015640207844E-16   5.01898824783884E-16   3.48599733169256E-01   3.48599733169256E-01
      0.00000000000000E+00   0.00000000000000E+00   1.54615015359847E-16   7.75533554740579E-21   1.54622770695395E-16
      7.90876213397127E-16  -5.00000000000000E-01  -5.00000000000000E-01   0.00000000000000E+00   0.00000000000000E+00
      0.00000000000000E+00   0.00000000000000E+00   0.00000000000000E+00  -4.76255424870784E-16
      4.08790929370963E-01
      0.00000000000000E+00   0.00000000000000E+00   0.00000000000000E+00   0.00000000000000E+00  -1.75145871743038E-16
     -2.29039583888452E-20  -1.75168775701427E-16   5.00557894882321E-16   4.08790929370963E-01   4.08790929370963E-01
      0.00000000000000E+00   0.00000000000000E+00   1.88104902989032E-16   7.82081235136916E-21   1.88112723801383E-16
      8.10374079400343E-16  -5.00000000000000E-01  -5.00000000000000E-01   0.00000000000000E+00   0.00000000000000E+00
      0.00000000000000E+00   0.00000000000000E+00   0.00000000000000E+00  -4.88706010060489E-16
      4.79415266247632E-01
      0.00000000000000E+00   0.00000000000000E+00   0.00000000000000E+00   0.00000000000000E+00  -2.67044834720685E-16
     -2.62857624757270E-20  -2.67071120483161E-16   4.98964243867713E-16   4.79415266247632E-01   4.79415266247632E-01
      0.00000000000000E+00   0.00000000000000E+00   2.09645122965199E-16   7.83926923442004E-21   2.09652962234434E-16
      8.33044293051422E-16  -5.00000000000000E-01  -5.00000000000000E-01   0.00000000000000E+00   0.00000000000000E+00
      0.00000000000000E+00   0.00000000000000E+00   0.00000000000000E+00  -5.03026313810125E-16
      5.61339497024568E-01
      0.00000000000000E+00   0.00000000000000E+00   0.00000000000000E+00   0.00000000000000E+00  -3.84632802710505E-16
     -2.91123642721831E-20  -3.84661915074777E-16   4.97134161711841E-16   5.61339497024568E-01   5.61339497024568E-01
      0.00000000000000E+00   0.00000000000000E+00   3.51168429890407E-16   7.83273497408646E-21   3.51176262625382E-16
      8.59120323128005E-16  -5.00000000000000E-01  -5.00000000000000E-01   0.00000000000000E+00   0.00000000000000E+00
      0.00000000000000E+00   0.00000000000000E+00   0.00000000000000E+00  -5.18995177175464E-16
      6.56371604725814E-01
      0.00000000000000E+00   0.00000000000000E+00   0.00000000000000E+00   0.00000000000000E+00  -6.43140775200990E-16
     -3.08552418303528E-20  -6.43171630442820E-16   4.94936979686138E-16   6.56371604725814E-01   6.56371604725814E-01
      0.00000000000000E+00   0.00000000000000E+00   6.03842403710876E-16   7.82827478527299E-21   6.03850231985661E-16
      8.89034702978366E-16  -5.00000000000000E-01  -5.00000000000000E-01   0.00000000000000E+00   0.00000000000000E+00
      0.00000000000000E+00   0.00000000000000E+00   0.00000000000000E+00  -5.36865436095460E-16
      7.66608849659259E-01
      0.00000000000000E+00   0.00000000000000E+00   0.00000000000000E+00   0.00000000000000E+00  -1.36541649754095E-15
     -3.16390715271855E-20  -1.36544813661247E-15   4.92083208905215E-16   7.66608849659259E-01   7.66608849659259E-01
      0.00000000000000E+00   0.00000000000000E+00   1.35293522615617E-15   7.82993991989282E-21   1.35294305609609E-15
      9.23207856478206E-16  -5.00000000000000E-01  -5.00000000000000E-01   0.00000000000000E+00   0.00000000000000E+00
      0.00000000000000E+00   0.00000000000000E+00   0.00000000000000E+00  -5.57290087165471E-16
      8.93014223849610E-01
      0.00000000000000E+00   0.00000000000000E+00   0.00000000000000E+00   0.00000000000000E+00  -4.00393295239938E-15
     -3.19240103517902E-20  -4.00396487640973E-15   4.88242927768743E-16   8.93014223849610E-01   8.93014223849610E-01
      0.00000000000000E+00   0.00000000000000E+00   4.03804127072197E-15   7.83792149096865E-21   4.03804910864346E-15
      9.61681422057278E-16  -5.00000000000000E-01  -5.00000000000000E-01   0.00000000000000E+00   0.00000000000000E+00
      0.00000000000000E+00   0.00000000000000E+00   0.00000000000000E+00  -5.80854206608584E-16
      1.00000000000000E+00
      0.00000000000000E+00   0.00000000000000E+00   0.00000000000000E+00   0.00000000000000E+00  -1.09813036826646E-14
     -3.24854212283470E-20  -1.09813361680858E-14   4.84491152272461E-16   1.00000000000000E+00   1.00000000000000E+00
      0.00000000000000E+00   0.00000000000000E+00   1.09447425198419E-14   7.84495019794820E-21   1.09447503647921E-14
      9.93695947841212E-16  -5.00000000000000E-01  -5.00000000000000E-01   0.00000000000000E+00   0.00000000000000E+00
      0.00000000000000E+00   0.00000000000000E+00   0.00000000000000E+00  -6.01252016653934E-16
      0.00000000000000E+00
      0.00000000000000E+00   0.00000000000000E+00   0.00000000000000E+00   0.00000000000000E+00  -1.09863443416367E-14
     -3.24854162086842E-20  -1.09863768270529E-14   4.84491152665366E-16   1.00000000000000E+00   1.00000000000000E+00
      0.00000000000000E+00   0.00000000000000E+00   1.09838162725053E-14   7.84495011369043E-21   1.09838241174554E-14
      9.93695948055779E-16  -5.00000000000000E-01  -5.00000000000000E-01   0.00000000000000E+00   0.00000000000000E+00
      0.00000000000000E+00   0.00000000000000E+00   0.00000000000000E+00  -6.01252014676278E-16
      1.00000000000000E-03
      0.00000000000000E+00   0.00000000000000E+00   0.00000000000000E+00   0.00000000000000E+00  -1.10288996698317E-14
     -3.24546645677517E-20  -1.10289321244963E-14   4.84357562145611E-16   1.00000000000000E+00   1.00000000000000E+00
      0.00000000000000E+00   0.00000000000000E+00   1.09855769099936E-14   7.84493482664712E-21   1.09855847549285E-14
      9.93317946050619E-16  -4.98000000000000E-01  -4.98000000000000E-01   0.00000000000000E+00   0.00000000000000E+00
      0.00000000000000E+00   0.00000000000000E+00   0.00000000000000E+00  -5.99457321388271E-16
      2.17333333333333E-03
      0.00000000000000E+00   0.00000000000000E+00   0.00000000000000E+00   0.00000000000000E+00  -1.10597722762078E-14
     -3.24200049003814E-20  -1.10598046962127E-14   4.84200245716254E-16   1.00000000000000E+00   1.00000000000000E+00
      0.00000000000000E+00   0.00000000000000E+00   1.11372163412329E-14   7.84491675518794E-21   1.11372241861496E-14
      9.92873656833488E-16  -4.95653333333333E-01  -4.95653333333333E-01   0.00000000000000E+00   0.00000000000000E+00
      0.00000000000000E+00   0.00000000000000E+00   0.00000000000000E+00  -5.97356216340486E-16
      3.56568888888889E-03
      0.00000000000000E+00   0.00000000000000E+00   0.00000000000000E+00   0.00000000000000E+00  -1.11650777238682E-14
     -3.23808959987162E-20  -1.11651101047642E-14   4.84012755192053E-16   1.00000000000000E+00   1.00000000000000E+00
      0.00000000000000E+00   0.00000000000000E+00   1.11873527346868E-14   7.84489512106275E-21   1.11873605795819E-14
      9.92345364205086E-16  -4.92868622222222E-01  -4.92868622222222E-01   0.00000000000000E+00   0.00000000000000E+00
      0.00000000000000E+00   0.00000000000000E+00   0.00000000000000E+00  -5.94869471468835E-16
      5.21795081481481E-03
      0.00000000000000E+00   0.00000000000000E+00   0.00000000000000E+00   0.00000000000000E+00  -1.12681451179995E-14
     -3.23373763625290E-20  -1.12681774553759E-14   4.83789112181536E-16   1.00000000000000E+00   1.00000000000000E+00
      0.00000000000000E+00   0.00000000000000E+00   1.12819068149367E-14   7.84486918090537E-21   1.12819146598058E-14
      9.91716959724436E-16  -4.89564098370370E-01  -4.89564098370370E-01   0.00000000000000E+00   0.00000000000000E+00
      0.00000000000000E+00   0.00000000000000E+00   0.00000000000000E+00  -5.91927823220347E-16
      7.17863496691358E-03
      0.00000000000000E+00   0.00000000000000E+00   0.00000000000000E+00   0.00000000000000E+00  -1.13513541638889E-14
     -3.22898842466722E-20  -1.13513864537732E-14   4.83522069396493E-16   1.00000000000000E+00   1.00000000000000E+00
      0.00000000000000E+00   0.00000000000000E+00   1.13856911484873E-14   7.84483801983935E-21   1.13856989933253E-14
      9.90969159917255E-16  -4.85642730066173E-01  -4.85642730066173E-01   0.00000000000000E+00   0.00000000000000E+00
      0.00000000000000E+00   0.00000000000000E+00   0.00000000000000E+00  -5.88450220528537E-16
      9.50531349407078E-03
      0.00000000000000E+00   0.00000000000000E+00   0.00000000000000E+00   0.00000000000000E+00  -1.14749608372883E-14
     -3.22395090973216E-20  -1.14749930767974E-14   4.83202803714241E-16   1.00000000000000E+00   1.00000000000000E+00
      0.00000000000000E+00   0.00000000000000E+00   1.14527954533992E-14   7.84480050574293E-21   1.14528032981997E-14
      9.90078850355982E-16  -4.80989373011858E-01  -4.80989373011858E-01   0.00000000000000E+00   0.00000000000000E+00
      0.00000000000000E+00   0.00000000000000E+00   0.00000000000000E+00  -5.84342107622950E-16
      1.22663053462973E-02
      0.00000000000000E+00   0.00000000000000E+00   0.00000000000000E+00   0.00000000000000E+00  -1.16335949739167E-14
     -3.21883974995898E-20  -1.16336271623142E-14   4.82820515827365E-16   1.00000000000000E+00   1.00000000000000E+00
      0.00000000000000E+00   0.00000000000000E+00   1.16297620548588E-14   7.84475522872945E-21   1.16297698996141E-14
      9.89018284288293E-16  -4.75467389307405E-01  -4.75467389307405E-01   0.00000000000000E+00   0.00000000000000E+00
      0.00000000000000E+00   0.00000000000000E+00   0.00000000000000E+00  -5.79493606488305E-16
      1.55426823442728E-02
      0.00000000000000E+00   0.00000000000000E+00   0.00000000000000E+00   0.00000000000000E+00  -1.18473301917221E-14
     -3.21403723107076E-20  -1.18473623320944E-14   4.82361901653870E-16   1.00000000000000E+00   1.00000000000000E+00
      0.00000000000000E+00   0.00000000000000E+00   1.18097432004380E-14   7.84470042060531E-21   1.18097510451384E-14
      9.87754102363220E-16  -4.68914635311454E-01  -4.68914635311454E-01   0.00000000000000E+00   0.00000000000000E+00
      0.00000000000000E+00   0.00000000000000E+00   0.00000000000000E+00  -5.73777675376104E-16
      1.94306497152037E-02
      0.00000000000000E+00   0.00000000000000E+00   0.00000000000000E+00   0.00000000000000E+00  -1.20487119513491E-14
     -3.21018928442870E-20  -1.20487440532419E-14   4.81810440367770E-16   1.00000000000000E+00   1.00000000000000E+00
      0.00000000000000E+00   0.00000000000000E+00   1.20606119038808E-14   7.84463384605105E-21   1.20606197485146E-14
      9.86246129760767E-16  -4.61138700569592E-01  -4.61138700569592E-01   0.00000000000000E+00   0.00000000000000E+00
      0.00000000000000E+00   0.00000000000000E+00   0.00000000000000E+00  -5.67048405921972E-16
      2.40443709953751E-02
      0.00000000000000E+00   0.00000000000000E+00   0.00000000000000E+00   0.00000000000000E+00  -1.23777522266913E-14
     -3.20835379695125E-20  -1.23777843102293E-14   4.81145415369929E-16   1.00000000000000E+00   1.00000000000000E+00
      0.00000000000000E+00   0.00000000000000E+00   1.23859638692325E-14   7.84455265318428E-21   1.23859717137851E-14
      9.84445893736218E-16  -4.51911258009250E-01  -4.51911258009250E-01   0.00000000000000E+00   0.00000000000000E+00
      0.00000000000000E+00   0.00000000000000E+00   0.00000000000000E+00  -5.59139754314491E-16
      2.95193202478451E-02
      0.00000000000000E+00   0.00000000000000E+00   0.00000000000000E+00   0.00000000000000E+00  -1.27370326248006E-14
     -3.21022709695627E-20  -1.27370647270716E-14   4.80340537810152E-16   1.00000000000000E+00   1.00000000000000E+00
      0.00000000000000E+00   0.00000000000000E+00   1.26915901886745E-14   7.84445316404219E-21   1.26915980331277E-14
      9.82294781554723E-16  -4.40961359504310E-01  -4.40961359504310E-01   0.00000000000000E+00   0.00000000000000E+00
      0.00000000000000E+00   0.00000000000000E+00   0.00000000000000E+00  -5.49865252088801E-16
      3.60162600274429E-02
      0.00000000000000E+00   0.00000000000000E+00   0.00000000000000E+00   0.00000000000000E+00  -1.32219296497361E-14
     -3.21847295934641E-20  -1.32219618344657E-14   4.79361972775094E-16   1.00000000000000E+00   1.00000000000000E+00
      0.00000000000000E+00   0.00000000000000E+00   1.32506502385501E-14   7.84433057407201E-21   1.32506580828807E-14
      9.79721717531498E-16  -4.27967479945114E-01  -4.27967479945114E-01   0.00000000000000E+00   0.00000000000000E+00
      0.00000000000000E+00   0.00000000000000E+00   0.00000000000000E+00  -5.39019685521606E-16
      4.36393360355042E-02
      0.00000000000000E+00   0.00000000000000E+00   0.00000000000000E+00   0.00000000000000E+00  -1.38488407699382E-14
     -3.23688487183646E-20  -1.38488731387870E-14   4.78179130753358E-16   1.00000000000000E+00   1.00000000000000E+00
      0.00000000000000E+00   0.00000000000000E+00   1.38839730739358E-14   7.84418025921130E-21   1.38839809181161E-14
      9.76674950087461E-16  -4.12721327928992E-01  -4.12721327928992E-01   0.00000000000000E+00   0.00000000000000E+00
      0.00000000000000E+00   0.00000000000000E+00   0.00000000000000E+00  -5.26525062664373E-16
      5.25837452182962E-02
      0.00000000000000E+00   0.00000000000000E+00   0.00000000000000E+00   0.00000000000000E+00  -1.46876467896643E-14
     -3.27080736624189E-20  -1.46876794977379E-14   4.76739907532802E-16   1.00000000000000E+00   1.00000000000000E+00