DF-ISE text

Info {
  version   = 1.0
  type      = xyplot
  datasets  = [
    "time"
    "S OuterVoltage" "S InnerVoltage" "S QuasiFermiPotential" "S DisplacementCurrent" "S eCurrent"
    "S hCurrent" "S TotalCurrent" "S Charge" "D OuterVoltage" "D InnerVoltage"
    "D QuasiFermiPotential" "D DisplacementCurrent" "D eCurrent" "D hCurrent" "D TotalCurrent"
    "D Charge" "G OuterVoltage" "G InnerVoltage" "G QuasiFermiPotential" "G DisplacementCurrent"
    "G eCurrent" "G hCurrent" "G TotalCurrent" "G Charge" ]
  functions = [
    Time
    OuterVoltage InnerVoltage QuasiFermiPotential DisplacementCurrent eCurrent
    hCurrent TotalCurrent Charge OuterVoltage InnerVoltage
    QuasiFermiPotential DisplacementCurrent eCurrent hCurrent TotalCurrent
    Charge OuterVoltage InnerVoltage QuasiFermiPotential DisplacementCurrent
    eCurrent hCurrent TotalCurrent Charge ]
}

Data {
      0.00000000000000E+00
      0.00000000000000E+00   0.00000000000000E+00   0.00000000000000E+00   0.00000000000000E+00  -7.72811896956344E-38
     -3.81709345483153E-35  -3.82482157380110E-35   6.20692003245016E-16   0.00000000000000E+00   0.00000000000000E+00
      0.00000000000000E+00   0.00000000000000E+00   3.77251861141920E-18  -4.44965565710999E-35   3.77251861141920E-18
      8.20768372184479E-16  -5.00000000000000E-01  -5.00000000000000E-01   0.00000000000000E+00   0.00000000000000E+00
      0.00000000000000E+00   0.00000000000000E+00   0.00000000000000E+00  -3.11436129644606E-16
      0.00000000000000E+00
      0.00000000000000E+00   0.00000000000000E+00   0.00000000000000E+00   0.00000000000000E+00   7.62346203372379E-18
     -4.94955336151165E-33   7.62346203372378E-18   6.20692002998542E-16   0.00000000000000E+00   0.00000000000000E+00
      0.00000000000000E+00   0.00000000000000E+00  -1.78798562485218E-17  -4.95112794028729E-33  -1.78798562485218E-17
      8.20768371784545E-16  -5.00000000000000E-01  -5.00000000000000E-01   0.00000000000000E+00   0.00000000000000E+00
      0.00000000000000E+00   0.00000000000000E+00   0.00000000000000E+00  -3.11436129645254E-16
      1.00000000000000E-03
      0.00000000000000E+00   0.00000000000000E+00   0.00000000000000E+00   0.00000000000000E+00  -1.25457283511877E-17
     -7.50130560663530E-23  -1.25458033642438E-17   6.20617552646424E-16   1.00000000000000E-03   1.00000000000000E-03
      0.00000000000000E+00   0.00000000000000E+00   1.33909931173366E-17   2.75776659688819E-22   1.33912688939963E-17
      8.21158345292317E-16  -5.00000000000000E-01  -5.00000000000000E-01   0.00000000000000E+00   0.00000000000000E+00
      0.00000000000000E+00   0.00000000000000E+00   0.00000000000000E+00  -3.11767806396704E-16
      2.17333333333333E-03
      0.00000000000000E+00   0.00000000000000E+00   0.00000000000000E+00   0.00000000000000E+00  -9.41232522597484E-18
     -1.62426802350432E-22  -9.41248765277719E-18   6.20531493433849E-16   2.17333333333333E-03   2.17333333333333E-03
      0.00000000000000E+00   0.00000000000000E+00   4.82176279934008E-18   5.90037603810861E-22   4.82235283694389E-18
      8.21616993495302E-16  -5.00000000000000E-01  -5.00000000000000E-01   0.00000000000000E+00   0.00000000000000E+00
      0.00000000000000E+00   0.00000000000000E+00   0.00000000000000E+00  -3.12153088988241E-16
      3.56568888888889E-03
      0.00000000000000E+00   0.00000000000000E+00   0.00000000000000E+00   0.00000000000000E+00   9.42054959407484E-18
     -2.65314143225981E-22   9.42028427993161E-18   6.20431144902278E-16   3.56568888888889E-03   3.56568888888889E-03
      0.00000000000000E+00   0.00000000000000E+00   1.90111254752274E-17   9.50196092505013E-22   1.90120756713199E-17
      8.22162723142591E-16  -5.00000000000000E-01  -5.00000000000000E-01   0.00000000000000E+00   0.00000000000000E+00
      0.00000000000000E+00   0.00000000000000E+00   0.00000000000000E+00  -3.12604972229850E-16
      5.21795081481481E-03
      0.00000000000000E+00   0.00000000000000E+00   0.00000000000000E+00   0.00000000000000E+00   5.66705788754137E-18
     -3.86220629732618E-22   5.66667166691164E-18   6.20314497390778E-16   5.21795081481481E-03   5.21795081481481E-03
      0.00000000000000E+00   0.00000000000000E+00   4.64163363822565E-17   1.36009508092722E-21   4.64176964773374E-17
      8.22812314296941E-16  -5.00000000000000E-01  -5.00000000000000E-01   0.00000000000000E+00   0.00000000000000E+00
      0.00000000000000E+00   0.00000000000000E+00   0.00000000000000E+00  -3.13133921608625E-16
      7.17863496691358E-03
      0.00000000000000E+00   0.00000000000000E+00   0.00000000000000E+00   0.00000000000000E+00  -3.97982648858506E-17
     -5.28032530891853E-22  -3.97987929183815E-17   6.20179390985835E-16   7.17863496691358E-03   7.17863496691358E-03
      0.00000000000000E+00   0.00000000000000E+00   6.67521462518759E-18   1.82269489432669E-21   6.67703732008192E-18
      8.23585846126117E-16  -5.00000000000000E-01  -5.00000000000000E-01   0.00000000000000E+00   0.00000000000000E+00
      0.00000000000000E+00   0.00000000000000E+00   0.00000000000000E+00  -3.13751685952472E-16
      9.50531349407078E-03
      0.00000000000000E+00   0.00000000000000E+00   0.00000000000000E+00   0.00000000000000E+00  -3.09569538805151E-17
     -6.93993373201666E-22  -3.09576478738883E-17   6.20023551041653E-16   9.50531349407078E-03   9.50531349407078E-03
      0.00000000000000E+00   0.00000000000000E+00   2.82350774632110E-17   2.33946861199580E-21   2.82374169318230E-17
      8.24507350820895E-16  -5.00000000000000E-01  -5.00000000000000E-01   0.00000000000000E+00   0.00000000000000E+00
      0.00000000000000E+00   0.00000000000000E+00   0.00000000000000E+00  -3.14471348679425E-16
      1.22663053462973E-02
      0.00000000000000E+00   0.00000000000000E+00   0.00000000000000E+00   0.00000000000000E+00  -3.97586741909092E-17
     -8.87712161996570E-22  -3.97595619030712E-17   6.19844639441965E-16   1.22663053462973E-02   1.22663053462973E-02
      0.00000000000000E+00   0.00000000000000E+00   3.91460328153161E-17   2.90963737998105E-21   3.91489424526960E-17
      8.25605587998573E-16  -5.00000000000000E-01  -5.00000000000000E-01   0.00000000000000E+00   0.00000000000000E+00
      0.00000000000000E+00   0.00000000000000E+00   0.00000000000000E+00  -3.15307362189104E-16
      1.55426823442728E-02
      0.00000000000000E+00   0.00000000000000E+00   0.00000000000000E+00   0.00000000000000E+00  -4.57942458459285E-17
     -1.11316417449236E-21  -4.57953590101030E-17   6.19640318959029E-16   1.55426823442728E-02   1.55426823442728E-02
      0.00000000000000E+00   0.00000000000000E+00   6.60250218668653E-17   3.52926816360034E-21   6.60285511350289E-17
      8.26914952314436E-16  -5.00000000000000E-01  -5.00000000000000E-01   0.00000000000000E+00   0.00000000000000E+00
      0.00000000000000E+00   0.00000000000000E+00   0.00000000000000E+00  -3.16275578998321E-16
      1.94306497152037E-02
      0.00000000000000E+00   0.00000000000000E+00   0.00000000000000E+00   0.00000000000000E+00  -7.60339582457660E-17
     -1.37469212998223E-21  -7.60353329378960E-17   6.19408320974624E-16   1.94306497152037E-02   1.94306497152037E-02
      0.00000000000000E+00   0.00000000000000E+00   6.12587315736342E-17   4.19030919144383E-21   6.12629218828256E-17
      8.28476522267389E-16  -5.00000000000000E-01  -5.00000000000000E-01   0.00000000000000E+00   0.00000000000000E+00
      0.00000000000000E+00   0.00000000000000E+00   0.00000000000000E+00  -3.17393315127576E-16
      2.40443709953751E-02
      0.00000000000000E+00   0.00000000000000E+00   0.00000000000000E+00   0.00000000000000E+00  -6.87949357388087E-17
     -1.67702951479876E-21  -6.87966127683235E-17   6.19146495247553E-16   2.40443709953751E-02   2.40443709953751E-02
      0.00000000000000E+00   0.00000000000000E+00   7.53507134742642E-17   4.87971724163824E-21   7.53555931915058E-17
      8.30339249147192E-16  -5.00000000000000E-01  -5.00000000000000E-01   0.00000000000000E+00   0.00000000000000E+00
      0.00000000000000E+00   0.00000000000000E+00   0.00000000000000E+00  -3.18679516307360E-16
      2.95193202478451E-02
      0.00000000000000E+00   0.00000000000000E+00   0.00000000000000E+00   0.00000000000000E+00  -9.50745641928425E-17
     -2.02538649921175E-21  -9.50765895793417E-17   6.18852808799758E-16   2.95193202478451E-02   2.95193202478451E-02
      0.00000000000000E+00   0.00000000000000E+00   9.46602577319299E-17   5.57892947418821E-21   9.46658366614041E-17
      8.32561278088894E-16  -5.00000000000000E-01  -5.00000000000000E-01   0.00000000000000E+00   0.00000000000000E+00
      0.00000000000000E+00   0.00000000000000E+00   0.00000000000000E+00  -3.20155132554476E-16
      3.60162600274429E-02
      0.00000000000000E+00   0.00000000000000E+00   0.00000000000000E+00   0.00000000000000E+00  -1.14793320134190E-16
     -2.42567544708463E-21  -1.14795745809637E-16   6.18525241617645E-16   3.60162600274429E-02   3.60162600274429E-02
      0.00000000000000E+00   0.00000000000000E+00   1.23687984751805E-16   6.26400825661642E-21   1.23694248760062E-16
      8.35211381229380E-16  -5.00000000000000E-01  -5.00000000000000E-01   0.00000000000000E+00   0.00000000000000E+00
      0.00000000000000E+00   0.00000000000000E+00   0.00000000000000E+00  -3.21843863966451E-16
      4.37259618992322E-02
      0.00000000000000E+00   0.00000000000000E+00   0.00000000000000E+00   0.00000000000000E+00  -1.03890526785718E-16
     -2.88498612893846E-21  -1.03893411771847E-16   6.18161522096279E-16   4.37259618992322E-02   4.37259618992322E-02
      0.00000000000000E+00   0.00000000000000E+00   1.27112629451291E-16   6.90676648634471E-21   1.27119536217777E-16
      8.38370489840304E-16  -5.00000000000000E-01  -5.00000000000000E-01   0.00000000000000E+00   0.00000000000000E+00
      0.00000000000000E+00   0.00000000000000E+00   0.00000000000000E+00  -3.23773454551076E-16
      5.28748081204222E-02
      0.00000000000000E+00   0.00000000000000E+00   0.00000000000000E+00   0.00000000000000E+00  -1.51730787356241E-16
     -3.41244331177127E-21  -1.51734199799553E-16   6.17758660910486E-16   5.28748081204222E-02   5.28748081204222E-02
      0.00000000000000E+00   0.00000000000000E+00   1.32905673789843E-16   7.47692215435329E-21   1.32913150711998E-16
      8.42133344360228E-16  -5.00000000000000E-01  -5.00000000000000E-01   0.00000000000000E+00   0.00000000000000E+00
      0.00000000000000E+00   0.00000000000000E+00   0.00000000000000E+00  -3.25977664605480E-16
      6.36094543532852E-02
      0.00000000000000E+00   0.00000000000000E+00   0.00000000000000E+00   0.00000000000000E+00  -1.71066673031752E-16
     -4.01379858207117E-21  -1.71070686830334E-16   6.17317159536192E-16   6.36094543532852E-02   6.36094543532852E-02
      0.00000000000000E+00   0.00000000000000E+00   1.63353584672546E-16   7.94051134924846E-21   1.63361525183895E-16
      8.46560015538651E-16  -5.00000000000000E-01  -5.00000000000000E-01   0.00000000000000E+00   0.00000000000000E+00
      0.00000000000000E+00   0.00000000000000E+00   0.00000000000000E+00  -3.28471019874066E-16
      7.62047725998443E-02
      0.00000000000000E+00   0.00000000000000E+00   0.00000000000000E+00   0.00000000000000E+00  -1.82704199069724E-16
     -4.70455459076405E-21  -1.82708903624315E-16   6.16831463257383E-16   7.62047725998443E-02   7.62047725998443E-02
      0.00000000000000E+00   0.00000000000000E+00   1.73866020961029E-16   8.27504824768095E-21   1.73874296009276E-16
      8.51760767099265E-16  -5.00000000000000E-01  -5.00000000000000E-01   0.00000000000000E+00   0.00000000000000E+00
      0.00000000000000E+00   0.00000000000000E+00   0.00000000000000E+00  -3.31300011902685E-16
      9.09832793424738E-02
      0.00000000000000E+00   0.00000000000000E+00   0.00000000000000E+00   0.00000000000000E+00  -1.95772809160901E-16
     -5.50580377034133E-21  -1.95778314964671E-16   6.16294203203029E-16   9.09832793424738E-02   9.09832793424738E-02
      0.00000000000000E+00   0.00000000000000E+00   2.09392708620597E-16   8.46213218581297E-21   2.09401170752783E-16
      8.57862873908203E-16  -5.00000000000000E-01  -5.00000000000000E-01   0.00000000000000E+00   0.00000000000000E+00
      0.00000000000000E+00   0.00000000000000E+00   0.00000000000000E+00  -3.34521574857136E-16
      1.08323393920492E-01
      0.00000000000000E+00   0.00000000000000E+00   0.00000000000000E+00   0.00000000000000E+00  -2.35765983578975E-16
     -6.44415517493501E-21  -2.35772427734150E-16   6.15697121410840E-16   1.08323393920492E-01   1.08323393920492E-01
      0.00000000000000E+00   0.00000000000000E+00   2.70386834735143E-16   8.49717933923341E-21   2.70395331914482E-16
      8.65014583779793E-16  -5.00000000000000E-01  -5.00000000000000E-01   0.00000000000000E+00   0.00000000000000E+00
      0.00000000000000E+00   0.00000000000000E+00   0.00000000000000E+00  -3.38201272207587E-16
      1.28669128358701E-01
      0.00000000000000E+00   0.00000000000000E+00   0.00000000000000E+00   0.00000000000000E+00  -3.06544108696078E-16
     -7.54907953954609E-21  -3.06551657775618E-16   6.15033367587355E-16   1.28669128358701E-01   1.28669128358701E-01
      0.00000000000000E+00   0.00000000000000E+00   3.12061177551434E-16   8.40825166804679E-21   3.12069585803102E-16
      8.73390707793809E-16  -5.00000000000000E-01  -5.00000000000000E-01   0.00000000000000E+00   0.00000000000000E+00
      0.00000000000000E+00   0.00000000000000E+00   0.00000000000000E+00  -3.42407726366775E-16
      1.52541456766199E-01
      0.00000000000000E+00   0.00000000000000E+00   0.00000000000000E+00   0.00000000000000E+00  -3.41483665431369E-16
     -8.84656077266351E-21  -3.41492511992141E-16   6.14300958218701E-16   1.52541456766199E-01   1.52541456766199E-01
      0.00000000000000E+00   0.00000000000000E+00   3.18472997787473E-16   8.24079847214806E-21   3.18481238585945E-16
      8.83199482066838E-16  -5.00000000000000E-01  -5.00000000000000E-01   0.00000000000000E+00   0.00000000000000E+00
      0.00000000000000E+00   0.00000000000000E+00   0.00000000000000E+00  -3.47204023161740E-16
      1.80551655430996E-01
      0.00000000000000E+00   0.00000000000000E+00   0.00000000000000E+00   0.00000000000000E+00  -3.96993654435195E-16
     -1.03499816405436E-20  -3.97004004416835E-16   6.13505839607617E-16   1.80551655430996E-01   1.80551655430996E-01
      0.00000000000000E+00   0.00000000000000E+00   4.05140086583031E-16   8.03231531738981E-21   4.05148118898349E-16
      8.94689081608338E-16  -5.00000000000000E-01  -5.00000000000000E-01   0.00000000000000E+00   0.00000000000000E+00
      0.00000000000000E+00   0.00000000000000E+00   0.00000000000000E+00  -3.52640730409182E-16
      2.13416955197692E-01
      0.00000000000000E+00   0.00000000000000E+00   0.00000000000000E+00   0.00000000000000E+00  -4.61657514897899E-16
     -1.20528176722901E-20  -4.61669567715572E-16   6.12661880426195E-16   2.13416955197692E-01   2.13416955197692E-01
      0.00000000000000E+00   0.00000000000000E+00   4.52659984957229E-16   7.81779637554603E-21   4.52667802753604E-16
      9.08151229275737E-16  -5.00000000000000E-01  -5.00000000000000E-01   0.00000000000000E+00   0.00000000000000E+00
      0.00000000000000E+00   0.00000000000000E+00   0.00000000000000E+00  -3.58758311052359E-16
      2.51978906923948E-01
      0.00000000000000E+00   0.00000000000000E+00   0.00000000000000E+00   0.00000000000000E+00  -5.27158118469168E-16
     -1.39277301429368E-20  -5.27172046199311E-16   6.11786869487140E-16   2.51978906923948E-01   2.51978906923948E-01
      0.00000000000000E+00   0.00000000000000E+00   5.26745084727994E-16   7.66894776277843E-21   5.26752753675757E-16
      9.23920925826800E-16  -5.00000000000000E-01  -5.00000000000000E-01   0.00000000000000E+00   0.00000000000000E+00
      0.00000000000000E+00   0.00000000000000E+00   0.00000000000000E+00  -3.65601600605900E-16
      2.97224930282756E-01
      0.00000000000000E+00   0.00000000000000E+00   0.00000000000000E+00   0.00000000000000E+00  -6.28409243399920E-16
     -1.59247075797128E-20  -6.28425168107500E-16   6.10899320418304E-16   2.97224930282756E-01   2.97224930282756E-01
      0.00000000000000E+00   0.00000000000000E+00   6.15189031232469E-16   7.68108501264005E-21   6.15196712317482E-16
      9.42375830281332E-16  -5.00000000000000E-01  -5.00000000000000E-01   0.00000000000000E+00   0.00000000000000E+00
      0.00000000000000E+00   0.00000000000000E+00   0.00000000000000E+00  -3.73232867347518E-16
      3.50313597690423E-01
      0.00000000000000E+00   0.00000000000000E+00   0.00000000000000E+00   0.00000000000000E+00  -6.94464996537806E-16
     -1.79147514192642E-20  -6.94482911289225E-16   6.10034241034346E-16   3.50313597690423E-01   3.50313597690423E-01
      0.00000000000000E+00   0.00000000000000E+00   6.79460785976156E-16   7.76281146958078E-21   6.79468548787626E-16
      9.63947627923010E-16  -5.00000000000000E-01  -5.00000000000000E-01   0.00000000000000E+00   0.00000000000000E+00
      0.00000000000000E+00   0.00000000000000E+00   0.00000000000000E+00  -3.81692957594508E-16
      4.11188602984549E-01
      0.00000000000000E+00   0.00000000000000E+00   0.00000000000000E+00   0.00000000000000E+00  -7.52274240671789E-16
     -1.96041161272825E-20  -7.52293844787916E-16   6.09266585267917E-16   4.11188602984549E-01   4.11188602984549E-01
      0.00000000000000E+00   0.00000000000000E+00   7.21823616299427E-16   7.82911384023326E-21   7.21831445413267E-16
      9.88544945662419E-16  -5.00000000000000E-01  -5.00000000000000E-01   0.00000000000000E+00   0.00000000000000E+00
      0.00000000000000E+00   0.00000000000000E+00   0.00000000000000E+00  -3.90783013754329E-16
      4.77745275439459E-01
      0.00000000000000E+00   0.00000000000000E+00   0.00000000000000E+00   0.00000000000000E+00  -7.69601458241307E-16
     -2.08190631179314E-20  -7.69622277304425E-16   6.08621476752547E-16   4.77745275439459E-01   4.77745275439459E-01
      0.00000000000000E+00   0.00000000000000E+00   7.65196391405869E-16   7.84929087822600E-21   7.65204240696747E-16
      1.01515375602927E-15  -5.00000000000000E-01  -5.00000000000000E-01   0.00000000000000E+00   0.00000000000000E+00
      0.00000000000000E+00   0.00000000000000E+00   0.00000000000000E+00  -4.00225223565497E-16
      5.52288748588958E-01
      0.00000000000000E+00   0.00000000000000E+00   0.00000000000000E+00   0.00000000000000E+00  -8.07924452578462E-16
     -2.16129872770927E-20  -8.07946065565739E-16   6.08034558623142E-16   5.52288748588958E-01   5.52288748588958E-01
      0.00000000000000E+00   0.00000000000000E+00   8.49004074836482E-16   7.84606886564877E-21   8.49011920905348E-16
      1.04441779646616E-15  -5.00000000000000E-01  -5.00000000000000E-01   0.00000000000000E+00   0.00000000000000E+00
      0.00000000000000E+00   0.00000000000000E+00   0.00000000000000E+00  -4.10515694202714E-16
      6.38759177442378E-01
      0.00000000000000E+00   0.00000000000000E+00   0.00000000000000E+00   0.00000000000000E+00  -8.22915686479203E-16
     -2.20962945264632E-20  -8.22937782773729E-16   6.07408726447322E-16   6.38759177442378E-01   6.38759177442378E-01
      0.00000000000000E+00   0.00000000000000E+00   8.62001055963284E-16   7.84366935787515E-21   8.62008899632642E-16
      1.07736168291201E-15  -5.00000000000000E-01  -5.00000000000000E-01   0.00000000000000E+00   0.00000000000000E+00
      0.00000000000000E+00   0.00000000000000E+00   0.00000000000000E+00  -4.22467989593037E-16
      7.39064874912345E-01
      0.00000000000000E+00   0.00000000000000E+00   0.00000000000000E+00   0.00000000000000E+00  -8.69738865203348E-16
     -2.23918627800037E-20  -8.69761257066128E-16   6.06631352845465E-16   7.39064874912345E-01   7.39064874912345E-01
      0.00000000000000E+00   0.00000000000000E+00   8.50486201882547E-16   7.84542474233067E-21   8.50494047307289E-16
      1.11393806607312E-15  -5.00000000000000E-01  -5.00000000000000E-01   0.00000000000000E+00   0.00000000000000E+00
      0.00000000000000E+00   0.00000000000000E+00   0.00000000000000E+00  -4.36708049163364E-16
      8.55419483977506E-01
      0.00000000000000E+00   0.00000000000000E+00   0.00000000000000E+00   0.00000000000000E+00  -8.56215304957700E-16
     -2.26429985961428E-20  -8.56237947956297E-16   6.05555503022116E-16   8.55419483977506E-01   8.55419483977506E-01
      0.00000000000000E+00   0.00000000000000E+00   8.53946061051754E-16   7.85356565750910E-21   8.53953914617411E-16
      1.15446320840452E-15  -5.00000000000000E-01  -5.00000000000000E-01   0.00000000000000E+00   0.00000000000000E+00
      0.00000000000000E+00   0.00000000000000E+00   0.00000000000000E+00  -4.53799772159917E-16
      9.88839435705558E-01
      0.00000000000000E+00   0.00000000000000E+00   0.00000000000000E+00   0.00000000000000E+00  -9.36999516941069E-16
     -2.30457951463205E-20  -9.37022562736216E-16   6.04007415208509E-16   9.88839435705558E-01   9.88839435705558E-01
      0.00000000000000E+00   0.00000000000000E+00   9.10033313487720E-16   7.86424457976250E-21   9.10041177732300E-16
      1.19940214516851E-15  -5.00000000000000E-01  -5.00000000000000E-01   0.00000000000000E+00   0.00000000000000E+00
      0.00000000000000E+00   0.00000000000000E+00   0.00000000000000E+00  -4.73804819724908E-16
      1.00000000000000E+00
      0.00000000000000E+00   0.00000000000000E+00   0.00000000000000E+00   0.00000000000000E+00  -9.28586087607634E-16
     -2.30948979799829E-20  -9.28609182505614E-16   6.03859821839098E-16   1.00000000000000E+00   1.00000000000000E+00
      0.00000000000000E+00   0.00000000000000E+00   9.19964595735376E-16   7.86512291663824E-21   9.19972460858292E-16
      1.20310694254797E-15  -5.00000000000000E-01  -5.00000000000000E-01   0.00000000000000E+00   0.00000000000000E+00
      0.00000000000000E+00   0.00000000000000E+00   0.00000000000000E+00  -4.75487261020765E-16
      0.00000000000000E+00
      0.00000000000000E+00   0.00000000000000E+00   0.00000000000000E+00   0.00000000000000E+00  -9.08850391095146E-16
     -2.30948259100673E-20  -9.08873485921056E-16   6.03859841063129E-16   1.00000000000000E+00   1.00000000000000E+00
      0.00000000000000E+00   0.00000000000000E+00   9.25952478664194E-16   7.86512292018106E-21   9.25960343787114E-16
      1.20310695249152E-15  -5.00000000000000E-01  -5.00000000000000E-01   0.00000000000000E+00   0.00000000000000E+00
      0.00000000000000E+00   0.00000000000000E+00   0.00000000000000E+00  -4.75487207772309E-16
      1.00000000000000E-03
      0.00000000000000E+00   0.00000000000000E+00   0.00000000000000E+00   0.00000000000000E+00  -9.28764587652740E-16
     -2.30914653893930E-20  -9.28787679118129E-16   6.03827171955337E-16   1.00000000000000E+00   1.00000000000000E+00
      0.00000000000000E+00   0.00000000000000E+00   9.24949546822113E-16   7.86512040975840E-21   9.24957411942523E-16
      1.20281186472567E-15  -4.98000000000000E-01  -4.98000000000000E-01   0.00000000000000E+00   0.00000000000000E+00
      0.00000000000000E+00   0.00000000000000E+00   0.00000000000000E+00  -4.73316932115304E-16
      2.17333333333333E-03
      0.00000000000000E+00   0.00000000000000E+00   0.00000000000000E+00   0.00000000000000E+00  -9.21519664781942E-16
     -2.30874493522471E-20  -9.21542752231294E-16   6.03788733005832E-16   1.00000000000000E+00   1.00000000000000E+00
      0.00000000000000E+00   0.00000000000000E+00   8.95765819376895E-16   7.86511746496117E-21   8.95773684494360E-16
      1.20246541591038E-15  -4.95653333333333E-01  -4.95653333333333E-01   0.00000000000000E+00   0.00000000000000E+00
      0.00000000000000E+00   0.00000000000000E+00   0.00000000000000E+00  -4.70770923635513E-16
      3.58133333333333E-03
      0.00000000000000E+00   0.00000000000000E+00   0.00000000000000E+00   0.00000000000000E+00  -9.01111375820659E-16
     -2.30826241699644E-20  -9.01134458444829E-16   6.03742425640121E-16   1.00000000000000E+00   1.00000000000000E+00
      0.00000000000000E+00   0.00000000000000E+00   9.36120600758180E-16   7.86511392730763E-21   9.36128465872107E-16
      1.20204936591228E-15  -4.92837333333333E-01  -4.92837333333333E-01   0.00000000000000E+00   0.00000000000000E+00
      0.00000000000000E+00   0.00000000000000E+00   0.00000000000000E+00  -4.67716422186498E-16
      5.27093333333333E-03
      0.00000000000000E+00   0.00000000000000E+00   0.00000000000000E+00   0.00000000000000E+00  -9.34585983814870E-16
     -2.30767565181818E-20  -9.34609060571389E-16   6.03686612160747E-16   1.00000000000000E+00   1.00000000000000E+00
      0.00000000000000E+00   0.00000000000000E+00   9.38847780166773E-16   7.86510968021273E-21   9.38855645276453E-16
      1.20154967528178E-15  -4.89458133333333E-01  -4.89458133333333E-01   0.00000000000000E+00   0.00000000000000E+00
      0.00000000000000E+00   0.00000000000000E+00   0.00000000000000E+00  -4.64051986049116E-16
      7.29845333333333E-03
      0.00000000000000E+00   0.00000000000000E+00   0.00000000000000E+00   0.00000000000000E+00  -9.03044849939168E-16
     -2.30696403202125E-20  -9.03067919579488E-16   6.03619268875593E-16   1.00000000000000E+00   1.00000000000000E+00
      0.00000000000000E+00   0.00000000000000E+00   8.80559501439929E-16   7.86510457929260E-21   8.80567366544508E-16
      1.20094943522419E-15  -4.85403093333333E-01  -4.85403093333333E-01   0.00000000000000E+00   0.00000000000000E+00
      0.00000000000000E+00   0.00000000000000E+00   0.00000000000000E+00  -4.59656074103970E-16
      9.73147733333333E-03
      0.00000000000000E+00   0.00000000000000E+00   0.00000000000000E+00   0.00000000000000E+00  -9.29621179678610E-16
     -2.30610524947964E-20  -9.29644240731105E-16   6.03537903398472E-16   1.00000000000000E+00   1.00000000000000E+00
      0.00000000000000E+00   0.00000000000000E+00   9.00173290603920E-16   7.86509844913588E-21   9.00181155702369E-16
      1.20022828151774E-15  -4.80537045333333E-01  -4.80537045333333E-01   0.00000000000000E+00   0.00000000000000E+00
      0.00000000000000E+00   0.00000000000000E+00   0.00000000000000E+00  -4.54383048131531E-16
      1.26186658133333E-02
      0.00000000000000E+00   0.00000000000000E+00   0.00000000000000E+00   0.00000000000000E+00  -9.04801952158672E-16
     -2.30506120457509E-20  -9.04825002770717E-16   6.03440598940588E-16   1.00000000000000E+00   1.00000000000000E+00
      0.00000000000000E+00   0.00000000000000E+00   9.31874174501192E-16   7.86509117182500E-21   9.31882039592363E-16
      1.19937134878907E-15  -4.74762668373333E-01  -4.74762668373333E-01   0.00000000000000E+00   0.00000000000000E+00
      0.00000000000000E+00   0.00000000000000E+00   0.00000000000000E+00  -4.48128508584970E-16
      1.60447961429333E-02
      0.00000000000000E+00   0.00000000000000E+00   0.00000000000000E+00   0.00000000000000E+00  -9.51827483668058E-16
     -2.30379617535016E-20  -9.51850521629812E-16   6.03324022808820E-16   1.00000000000000E+00   1.00000000000000E+00
      0.00000000000000E+00   0.00000000000000E+00   9.21567526047873E-16   7.86508252828687E-21   9.21575391130401E-16
      1.19835286152832E-15  -4.67910407714133E-01  -4.67910407714133E-01   0.00000000000000E+00   0.00000000000000E+00
      0.00000000000000E+00   0.00000000000000E+00   0.00000000000000E+00  -4.40710435988386E-16
      2.01104708007253E-02
      0.00000000000000E+00   0.00000000000000E+00   0.00000000000000E+00   0.00000000000000E+00  -9.30978134088628E-16
     -2.30225654480101E-20  -9.31001156654076E-16   6.03184083465180E-16   1.00000000000000E+00   1.00000000000000E+00
      0.00000000000000E+00   0.00000000000000E+00   9.08943416198027E-16   7.86507226255191E-21   9.08951281270289E-16
      1.19714210312749E-15  -4.59779058398549E-01  -4.59779058398549E-01   0.00000000000000E+00   0.00000000000000E+00
      0.00000000000000E+00   0.00000000000000E+00   0.00000000000000E+00  -4.31913254401028E-16
      2.49350713946385E-02
      0.00000000000000E+00   0.00000000000000E+00   0.00000000000000E+00   0.00000000000000E+00  -9.05645799441683E-16
     -2.30037285482205E-20  -9.05668803170232E-16   6.03015691765884E-16   1.00000000000000E+00   1.00000000000000E+00
      0.00000000000000E+00   0.00000000000000E+00   9.47745026162765E-16   7.86506007150491E-21   9.47752891222837E-16
      1.19570244135983E-15  -4.50129857210723E-01  -4.50129857210723E-01   0.00000000000000E+00   0.00000000000000E+00
      0.00000000000000E+00   0.00000000000000E+00   0.00000000000000E+00  -4.21481835058495E-16
      3.06602640994155E-02
      0.00000000000000E+00   0.00000000000000E+00   0.00000000000000E+00   0.00000000000000E+00  -9.25684458594706E-16
     -2.29805306291991E-20  -9.25707439125335E-16   6.02812456780187E-16   1.00000000000000E+00   1.00000000000000E+00
      0.00000000000000E+00   0.00000000000000E+00   9.55338786691197E-16   7.86504559724025E-21   9.55346651736794E-16
      1.19399017104706E-15  -4.38679471801169E-01  -4.38679471801169E-01   0.00000000000000E+00   0.00000000000000E+00
      0.00000000000000E+00   0.00000000000000E+00   0.00000000000000E+00  -4.09114433234941E-16
      3.74541594424175E-02
      0.00000000000000E+00   0.00000000000000E+00   0.00000000000000E+00   0.00000000000000E+00  -9.17846946933402E-16
     -2.29517321167164E-20  -9.17869898665518E-16   6.02566254985952E-16   1.00000000000000E+00   1.00000000000000E+00
      0.00000000000000E+00   0.00000000000000E+00   9.12063568146668E-16   7.86502841828393E-21   9.12071433175086E-16
      1.19195312310294E-15  -4.25091681115165E-01  -4.25091681115165E-01   0.00000000000000E+00   0.00000000000000E+00
      0.00000000000000E+00   0.00000000000000E+00   0.00000000000000E+00  -3.94454494745722E-16
      4.55162485827798E-02
      0.00000000000000E+00   0.00000000000000E+00   0.00000000000000E+00   0.00000000000000E+00  -9.33450316565007E-16
     -2.29156208587847E-20  -9.33473232185866E-16   6.02266609091470E-16   1.00000000000000E+00   1.00000000000000E+00