DF-ISE text

Info {
  version   = 1.0
  type      = xyplot
  datasets  = [
    "time"
    "S OuterVoltage" "S InnerVoltage" "S QuasiFermiPotential" "S DisplacementCurrent" "S eCurrent"
    "S hCurrent" "S TotalCurrent" "S Charge" "D OuterVoltage" "D InnerVoltage"
    "D QuasiFermiPotential" "D DisplacementCurrent" "D eCurrent" "D hCurrent" "D TotalCurrent"
    "D Charge" "G OuterVoltage" "G InnerVoltage" "G QuasiFermiPotential" "G DisplacementCurrent"
    "G eCurrent" "G hCurrent" "G TotalCurrent" "G Charge" ]
  functions = [
    Time
    OuterVoltage InnerVoltage QuasiFermiPotential DisplacementCurrent eCurrent
    hCurrent TotalCurrent Charge OuterVoltage InnerVoltage
    QuasiFermiPotential DisplacementCurrent eCurrent hCurrent TotalCurrent
    Charge OuterVoltage InnerVoltage QuasiFermiPotential DisplacementCurrent
    eCurrent hCurrent TotalCurrent Charge ]
}

Data {
      0.00000000000000E+00
      0.00000000000000E+00   0.00000000000000E+00   0.00000000000000E+00   0.00000000000000E+00   1.60029724518707E-18
     -1.81505920281454E-36   1.60029724518707E-18   8.01314895546032E-16   0.00000000000000E+00   0.00000000000000E+00
      0.00000000000000E+00   0.00000000000000E+00   3.76515425021029E-19   3.17000515013516E-35   3.76515425021029E-19
      9.02623062727791E-16  -5.00000000000000E-01  -5.00000000000000E-01   0.00000000000000E+00   0.00000000000000E+00
      0.00000000000000E+00   0.00000000000000E+00   0.00000000000000E+00  -3.27440558378323E-16
      0.00000000000000E+00
      0.00000000000000E+00   0.00000000000000E+00   0.00000000000000E+00   0.00000000000000E+00  -3.16562321958405E-20
     -1.78505010755739E-31  -3.16562321960190E-20   8.01314894427678E-16   0.00000000000000E+00   0.00000000000000E+00
      0.00000000000000E+00   0.00000000000000E+00   7.93710516079300E-18  -1.78507373615995E-31   7.93710516079282E-18
      9.02623061506193E-16  -5.00000000000000E-01  -5.00000000000000E-01   0.00000000000000E+00   0.00000000000000E+00
      0.00000000000000E+00   0.00000000000000E+00   0.00000000000000E+00  -3.27440558379441E-16
      1.00000000000000E-03
      0.00000000000000E+00   0.00000000000000E+00   0.00000000000000E+00   0.00000000000000E+00  -6.25708817121289E-18
     -2.57939954252676E-22  -6.25734611116714E-18   8.01173999733540E-16   1.00000000000000E-03   1.00000000000000E-03
      0.00000000000000E+00   0.00000000000000E+00  -1.26568745893704E-18   6.29876057337852E-22  -1.26505758287970E-18
      9.03043069031113E-16  -5.00000000000000E-01  -5.00000000000000E-01   0.00000000000000E+00   0.00000000000000E+00
      0.00000000000000E+00   0.00000000000000E+00   0.00000000000000E+00  -3.27752109589616E-16
      2.17333333333333E-03
      0.00000000000000E+00   0.00000000000000E+00   0.00000000000000E+00   0.00000000000000E+00  -5.86154386318235E-18
     -5.60245530334988E-22  -5.86210410871268E-18   8.01010774823984E-16   2.17333333333333E-03   2.17333333333333E-03
      0.00000000000000E+00   0.00000000000000E+00  -4.66673001743738E-19   1.35076407578767E-21  -4.65322237667950E-19
      9.03537668660596E-16  -5.00000000000000E-01  -5.00000000000000E-01   0.00000000000000E+00   0.00000000000000E+00
      0.00000000000000E+00   0.00000000000000E+00   0.00000000000000E+00  -3.28114136160401E-16
      3.56568888888889E-03
      0.00000000000000E+00   0.00000000000000E+00   0.00000000000000E+00   0.00000000000000E+00  -9.15489573766579E-18
     -9.18458209575991E-22  -9.15581419587536E-18   8.00819954933965E-16   3.56568888888889E-03   3.56568888888889E-03
      0.00000000000000E+00   0.00000000000000E+00   8.04357403508513E-18   2.18113585967747E-21   8.04575517094481E-18
      9.04127035954352E-16  -5.00000000000000E-01  -5.00000000000000E-01   0.00000000000000E+00   0.00000000000000E+00
      0.00000000000000E+00   0.00000000000000E+00   0.00000000000000E+00  -3.28538894903020E-16
      5.21795081481481E-03
      0.00000000000000E+00   0.00000000000000E+00   0.00000000000000E+00   0.00000000000000E+00  -1.03777036646222E-17
     -1.34273566278510E-21  -1.03790464002850E-17   8.00597470800300E-16   5.21795081481481E-03   5.21795081481481E-03
      0.00000000000000E+00   0.00000000000000E+00   1.72209703508412E-17   3.13184055124952E-21   1.72241021913924E-17
      9.04829750299524E-16  -5.00000000000000E-01  -5.00000000000000E-01   0.00000000000000E+00   0.00000000000000E+00
      0.00000000000000E+00   0.00000000000000E+00   0.00000000000000E+00  -3.29036270886174E-16
      7.17863496691358E-03
      0.00000000000000E+00   0.00000000000000E+00   0.00000000000000E+00   0.00000000000000E+00   3.31849953508993E-18
     -1.84499191224970E-21   3.31665454317768E-18   8.00338872941797E-16   7.17863496691358E-03   7.17863496691358E-03
      0.00000000000000E+00   0.00000000000000E+00   1.65323655173036E-18   4.21231667409345E-21   1.65744886840445E-18
      9.05668149803597E-16  -5.00000000000000E-01  -5.00000000000000E-01   0.00000000000000E+00   0.00000000000000E+00
      0.00000000000000E+00   0.00000000000000E+00   0.00000000000000E+00  -3.29617353964584E-16
      9.50531349407078E-03
      0.00000000000000E+00   0.00000000000000E+00   0.00000000000000E+00   0.00000000000000E+00  -6.43163164446123E-18
     -2.43916610321007E-21  -6.43407081056444E-18   8.00039373120270E-16   9.50531349407078E-03   9.50531349407078E-03
      0.00000000000000E+00   0.00000000000000E+00   8.35436188259968E-18   5.42926800055486E-21   8.35979115060023E-18
      9.06669102886162E-16  -5.00000000000000E-01  -5.00000000000000E-01   0.00000000000000E+00   0.00000000000000E+00
      0.00000000000000E+00   0.00000000000000E+00   0.00000000000000E+00  -3.30294473522908E-16
      1.22663053462973E-02
      0.00000000000000E+00   0.00000000000000E+00   0.00000000000000E+00   0.00000000000000E+00  -7.92465312425098E-18
     -3.14153647505493E-21  -7.92779466072604E-18   7.99693908278924E-16   1.22663053462973E-02   1.22663053462973E-02
      0.00000000000000E+00   0.00000000000000E+00   5.83966435266917E-18   6.78489489911208E-21   5.84644924756828E-18
      9.07864917894304E-16  -5.00000000000000E-01  -5.00000000000000E-01   0.00000000000000E+00   0.00000000000000E+00
      0.00000000000000E+00   0.00000000000000E+00   0.00000000000000E+00  -3.31081214377146E-16
      1.55426823442728E-02
      0.00000000000000E+00   0.00000000000000E+00   0.00000000000000E+00   0.00000000000000E+00  -3.24650488540948E-18
     -3.97109314304165E-21  -3.25047597855253E-18   7.99297226664150E-16   1.55426823442728E-02   1.55426823442728E-02
      0.00000000000000E+00   0.00000000000000E+00   9.07674522533772E-18   8.27468303286446E-21   9.08501990837059E-18
      9.09294401667389E-16  -5.00000000000000E-01  -5.00000000000000E-01   0.00000000000000E+00   0.00000000000000E+00
      0.00000000000000E+00   0.00000000000000E+00   0.00000000000000E+00  -3.31992417680817E-16
      1.94306497152037E-02
      0.00000000000000E+00   0.00000000000000E+00   0.00000000000000E+00   0.00000000000000E+00  -1.46410696397072E-17
     -4.95005194169349E-21  -1.46460196916489E-17   7.98843964386588E-16   1.94306497152037E-02   1.94306497152037E-02
      0.00000000000000E+00   0.00000000000000E+00   1.26494742129561E-17   9.88484063609339E-21   1.26593590535922E-17
      9.11004044456827E-16  -5.00000000000000E-01  -5.00000000000000E-01   0.00000000000000E+00   0.00000000000000E+00
      0.00000000000000E+00   0.00000000000000E+00   0.00000000000000E+00  -3.33044223763314E-16
      2.40443709953751E-02
      0.00000000000000E+00   0.00000000000000E+00   0.00000000000000E+00   0.00000000000000E+00  -2.73640785973998E-17
     -6.10465045078330E-21  -2.73701832478506E-17   7.98328663776525E-16   2.40443709953751E-02   2.40443709953751E-02
      0.00000000000000E+00   0.00000000000000E+00   9.25993583789181E-18   1.15896915583841E-20   9.27152552945019E-18
      9.13049286797104E-16  -5.00000000000000E-01  -5.00000000000000E-01   0.00000000000000E+00   0.00000000000000E+00
      0.00000000000000E+00   0.00000000000000E+00   0.00000000000000E+00  -3.34254242723380E-16
      2.95193202478451E-02
      0.00000000000000E+00   0.00000000000000E+00   0.00000000000000E+00   0.00000000000000E+00  -3.70284601787500E-17
     -7.46657273100420E-21  -3.70359267514810E-17   7.97745619698483E-16   2.95193202478451E-02   2.95193202478451E-02
      0.00000000000000E+00   0.00000000000000E+00   7.24406448310955E-18   1.33496094215183E-20   7.25741409253107E-18
      9.15495752293038E-16  -5.00000000000000E-01  -5.00000000000000E-01   0.00000000000000E+00   0.00000000000000E+00
      0.00000000000000E+00   0.00000000000000E+00   0.00000000000000E+00  -3.35642047954104E-16
      3.60162600274429E-02
      0.00000000000000E+00   0.00000000000000E+00   0.00000000000000E+00   0.00000000000000E+00  -1.41698674732071E-16
     -9.07565387481489E-21  -1.41707750385946E-16   7.97088378036625E-16   3.60162600274429E-02   3.60162600274429E-02
      0.00000000000000E+00   0.00000000000000E+00  -1.04445417125801E-16   1.51104542832562E-20  -1.04430306671518E-16
      9.18420258820340E-16  -5.00000000000000E-01  -5.00000000000000E-01   0.00000000000000E+00   0.00000000000000E+00
      0.00000000000000E+00   0.00000000000000E+00   0.00000000000000E+00  -3.37230291363239E-16
      4.37259618992322E-02
      0.00000000000000E+00   0.00000000000000E+00   0.00000000000000E+00   0.00000000000000E+00  -1.19060655945197E-16
     -1.09852554080492E-20  -1.19071641200605E-16   7.96348556598022E-16   4.37259618992322E-02   4.37259618992322E-02
      0.00000000000000E+00   0.00000000000000E+00  -6.77566260245511E-17   1.68057163640301E-20  -6.77398203081870E-17
      9.21911260427289E-16  -5.00000000000000E-01  -5.00000000000000E-01   0.00000000000000E+00   0.00000000000000E+00
      0.00000000000000E+00   0.00000000000000E+00   0.00000000000000E+00  -3.39046994720678E-16
      5.28748081204222E-02
      0.00000000000000E+00   0.00000000000000E+00   0.00000000000000E+00   0.00000000000000E+00  -4.82511646262301E-17
     -1.32724668030733E-20  -4.82644370930331E-17   7.95513668810242E-16   5.28748081204222E-02   5.28748081204222E-02
      0.00000000000000E+00   0.00000000000000E+00   1.94250831662552E-17   1.83625412552225E-20   1.94434457075105E-17
      9.26068372917378E-16  -5.00000000000000E-01  -5.00000000000000E-01   0.00000000000000E+00   0.00000000000000E+00
      0.00000000000000E+00   0.00000000000000E+00   0.00000000000000E+00  -3.41129551581188E-16
      6.37314389695677E-02
      0.00000000000000E+00   0.00000000000000E+00   0.00000000000000E+00   0.00000000000000E+00  -2.60229997898681E-17
     -1.60580507999826E-20  -2.60390578406680E-17   7.94563197143166E-16   6.37314389695677E-02   6.37314389695677E-02
      0.00000000000000E+00   0.00000000000000E+00   2.33233741237612E-17   1.97116719445103E-20   2.33430857957057E-17
      9.31000239983505E-16  -5.00000000000000E-01  -5.00000000000000E-01   0.00000000000000E+00   0.00000000000000E+00
      0.00000000000000E+00   0.00000000000000E+00   0.00000000000000E+00  -3.43531687852450E-16
      7.64698858325651E-02
      0.00000000000000E+00   0.00000000000000E+00   0.00000000000000E+00   0.00000000000000E+00  -3.81881215940474E-17
     -1.95028252276081E-20  -3.82076244192750E-17   7.93474883856759E-16   7.64698858325651E-02   7.64698858325651E-02
      0.00000000000000E+00   0.00000000000000E+00   3.52633369209754E-17   2.07897065467935E-20   3.52841266275222E-17
      9.36755361417469E-16  -5.00000000000000E-01  -5.00000000000000E-01   0.00000000000000E+00   0.00000000000000E+00
      0.00000000000000E+00   0.00000000000000E+00   0.00000000000000E+00  -3.46302556348080E-16
      9.14163301518153E-02
      0.00000000000000E+00   0.00000000000000E+00   0.00000000000000E+00   0.00000000000000E+00  -5.81314384428256E-17
     -2.39296349845510E-20  -5.81553680778101E-17   7.92195810927949E-16   9.14163301518153E-02   9.14163301518153E-02
      0.00000000000000E+00   0.00000000000000E+00   4.30317782603592E-17   2.15780311470018E-20   4.30533562915062E-17
      9.43425372969404E-16  -5.00000000000000E-01  -5.00000000000000E-01   0.00000000000000E+00   0.00000000000000E+00
      0.00000000000000E+00   0.00000000000000E+00   0.00000000000000E+00  -3.49553297531928E-16
      1.08953491486402E-01
      0.00000000000000E+00   0.00000000000000E+00   0.00000000000000E+00   0.00000000000000E+00  -5.49790226825963E-17
     -2.99220030751484E-20  -5.50089446856714E-17   7.90639892004344E-16   1.08953491486402E-01   1.08953491486402E-01
      0.00000000000000E+00   0.00000000000000E+00   4.70639456112065E-17   2.20806406777769E-20   4.70860262518843E-17
      9.51088709704330E-16  -5.00000000000000E-01  -5.00000000000000E-01   0.00000000000000E+00   0.00000000000000E+00
      0.00000000000000E+00   0.00000000000000E+00   0.00000000000000E+00  -3.53453533557860E-16
      1.29530427452318E-01
      0.00000000000000E+00   0.00000000000000E+00   0.00000000000000E+00   0.00000000000000E+00  -6.32949711905711E-17
     -3.86028395956977E-20  -6.33335740301668E-17   7.88666520383824E-16   1.29530427452318E-01   1.29530427452318E-01
      0.00000000000000E+00   0.00000000000000E+00   7.03166985342984E-17   2.23164311043145E-20   7.03390149654027E-17
      9.59795867254346E-16  -5.00000000000000E-01  -5.00000000000000E-01   0.00000000000000E+00   0.00000000000000E+00
      0.00000000000000E+00   0.00000000000000E+00   0.00000000000000E+00  -3.58266893821408E-16
      1.53674032318992E-01
      0.00000000000000E+00   0.00000000000000E+00   0.00000000000000E+00   0.00000000000000E+00  -9.29320698058111E-17
     -5.23298793828464E-20  -9.29843996851939E-17   7.86041990774593E-16   1.53674032318992E-01   1.53674032318992E-01
      0.00000000000000E+00   0.00000000000000E+00   8.43154048520400E-17   2.23263408292400E-20   8.43377311928693E-17
      9.69545948342977E-16  -5.00000000000000E-01  -5.00000000000000E-01   0.00000000000000E+00   0.00000000000000E+00
      0.00000000000000E+00   0.00000000000000E+00   0.00000000000000E+00  -3.64414801428357E-16
      1.82002528695889E-01
      0.00000000000000E+00   0.00000000000000E+00   0.00000000000000E+00   0.00000000000000E+00  -1.25052971888132E-16
     -7.65542790194664E-20  -1.25129526167151E-16   7.82385233617873E-16   1.82002528695889E-01   1.82002528695889E-01
      0.00000000000000E+00   0.00000000000000E+00   1.15956558624098E-16   2.21867553865785E-20   1.15978745379484E-16
      9.80261991792401E-16  -5.00000000000000E-01  -5.00000000000000E-01   0.00000000000000E+00   0.00000000000000E+00
      0.00000000000000E+00   0.00000000000000E+00   0.00000000000000E+00  -3.72565975282406E-16
      2.15241297778115E-01
      0.00000000000000E+00   0.00000000000000E+00   0.00000000000000E+00   0.00000000000000E+00  -1.66275043001545E-16
     -1.24784684663949E-19  -1.66399827686209E-16   7.77169199139240E-16   2.15241297778115E-01   2.15241297778115E-01
      0.00000000000000E+00   0.00000000000000E+00   1.51834468953765E-16   2.19753527603572E-20   1.51856444306525E-16
      9.91824304795913E-16  -5.00000000000000E-01  -5.00000000000000E-01   0.00000000000000E+00   0.00000000000000E+00
      0.00000000000000E+00   0.00000000000000E+00   0.00000000000000E+00  -3.83634623262832E-16
      2.53798269913498E-01
      0.00000000000000E+00   0.00000000000000E+00   0.00000000000000E+00   0.00000000000000E+00  -2.45435380966010E-16
     -2.28198585509313E-19  -2.45663579551520E-16   7.70105522686334E-16   2.53798269913498E-01   2.53798269913498E-01
      0.00000000000000E+00   0.00000000000000E+00   2.38519898838958E-16   2.17351637376642E-20   2.38541634002696E-16
      1.00418658647836E-15  -5.00000000000000E-01  -5.00000000000000E-01   0.00000000000000E+00   0.00000000000000E+00
      0.00000000000000E+00   0.00000000000000E+00   0.00000000000000E+00  -3.98115991288109E-16
      2.98524357590542E-01
      0.00000000000000E+00   0.00000000000000E+00   0.00000000000000E+00   0.00000000000000E+00  -3.55733328302497E-16
     -4.43019410043397E-19  -3.56176347712540E-16   7.61796389469438E-16   2.98524357590542E-01   2.98524357590542E-01
      0.00000000000000E+00   0.00000000000000E+00   3.64870177204749E-16   2.14644983167583E-20   3.64891641703065E-16
      1.01816535272877E-15  -5.00000000000000E-01  -5.00000000000000E-01   0.00000000000000E+00   0.00000000000000E+00
      0.00000000000000E+00   0.00000000000000E+00   0.00000000000000E+00  -4.15066270389402E-16
      3.50406619295913E-01
      0.00000000000000E+00   0.00000000000000E+00   0.00000000000000E+00   0.00000000000000E+00  -5.25940275304039E-16
     -7.91025520772489E-19  -5.26731300824812E-16   7.54225457530629E-16   3.50406619295913E-01   3.50406619295913E-01
      0.00000000000000E+00   0.00000000000000E+00   5.10163836681873E-16   2.11355781112912E-20   5.10184972259984E-16
      1.03551909064055E-15  -5.00000000000000E-01  -5.00000000000000E-01   0.00000000000000E+00   0.00000000000000E+00
      0.00000000000000E+00   0.00000000000000E+00   0.00000000000000E+00  -4.31260347113875E-16
      4.10590042874143E-01
      0.00000000000000E+00   0.00000000000000E+00   0.00000000000000E+00   0.00000000000000E+00  -6.92970325945378E-16
     -1.14214619881402E-18  -6.94112472144192E-16   7.49321914202355E-16   4.10590042874143E-01   4.10590042874143E-01
      0.00000000000000E+00   0.00000000000000E+00   6.27216069105343E-16   2.07541514524756E-20   6.27236823256796E-16
      1.05788046108168E-15  -5.00000000000000E-01  -5.00000000000000E-01   0.00000000000000E+00   0.00000000000000E+00
      0.00000000000000E+00   0.00000000000000E+00   0.00000000000000E+00  -4.43589163335886E-16
      4.80402814224890E-01
      0.00000000000000E+00   0.00000000000000E+00   0.00000000000000E+00   0.00000000000000E+00  -7.45984991490831E-16
     -1.36742092190910E-18  -7.47352412412740E-16   7.46893412109739E-16   4.80402814224890E-01   4.80402814224890E-01
      0.00000000000000E+00   0.00000000000000E+00   7.28045098690343E-16   2.05376945769173E-20   7.28065636384919E-16
      1.08550572769759E-15  -5.00000000000000E-01  -5.00000000000000E-01   0.00000000000000E+00   0.00000000000000E+00
      0.00000000000000E+00   0.00000000000000E+00   0.00000000000000E+00  -4.52521675490510E-16
      5.61385628991756E-01
      0.00000000000000E+00   0.00000000000000E+00   0.00000000000000E+00   0.00000000000000E+00  -7.58532063003666E-16
     -1.48517047539418E-18  -7.60017233479060E-16   7.45772260630892E-16   5.61385628991756E-01   5.61385628991756E-01
      0.00000000000000E+00   0.00000000000000E+00   7.51932892135827E-16   2.07138841054900E-20   7.51953606019932E-16
      1.11819667460341E-15  -5.00000000000000E-01  -5.00000000000000E-01   0.00000000000000E+00   0.00000000000000E+00
      0.00000000000000E+00   0.00000000000000E+00   0.00000000000000E+00  -4.60179220958888E-16
      6.52086381530647E-01
      0.00000000000000E+00   0.00000000000000E+00   0.00000000000000E+00   0.00000000000000E+00  -7.95730554976920E-16
     -1.56435497433143E-18  -7.97294909951252E-16   7.45063719804431E-16   6.52086381530647E-01   6.52086381530647E-01
      0.00000000000000E+00   0.00000000000000E+00   7.82533213381131E-16   2.09342079238975E-20   7.82554147589055E-16
      1.15476638172385E-15  -5.00000000000000E-01  -5.00000000000000E-01   0.00000000000000E+00   0.00000000000000E+00
      0.00000000000000E+00   0.00000000000000E+00   0.00000000000000E+00  -4.67993675108878E-16
      7.56089911108575E-01
      0.00000000000000E+00   0.00000000000000E+00   0.00000000000000E+00   0.00000000000000E+00  -8.14485131451970E-16
     -1.66940037959884E-18  -8.16154531831569E-16   7.44175434767531E-16   7.56089911108575E-01   7.56089911108575E-01
      0.00000000000000E+00   0.00000000000000E+00   8.15502499456399E-16   2.11428505718932E-20   8.15523642306971E-16
      1.19628674100963E-15  -5.00000000000000E-01  -5.00000000000000E-01   0.00000000000000E+00   0.00000000000000E+00
      0.00000000000000E+00   0.00000000000000E+00   0.00000000000000E+00  -4.77230778079218E-16
      8.75347291691265E-01
      0.00000000000000E+00   0.00000000000000E+00   0.00000000000000E+00   0.00000000000000E+00  -8.76280072239888E-16
     -1.91558867847828E-18  -8.78195660918366E-16   7.42294263262014E-16   8.75347291691265E-01   8.75347291691265E-01
      0.00000000000000E+00   0.00000000000000E+00   8.97614126144807E-16   2.13429882740145E-20   8.97635469133081E-16
      1.24299849357803E-15  -5.00000000000000E-01  -5.00000000000000E-01   0.00000000000000E+00   0.00000000000000E+00
      0.00000000000000E+00   0.00000000000000E+00   0.00000000000000E+00  -4.89344499925925E-16
      1.00000000000000E+00
      0.00000000000000E+00   0.00000000000000E+00   0.00000000000000E+00   0.00000000000000E+00  -1.03123802134506E-15
     -2.53128845152021E-18  -1.03376930979658E-15   7.38467996270892E-16   1.00000000000000E+00   1.00000000000000E+00
      0.00000000000000E+00   0.00000000000000E+00   1.04651722809901E-15   2.15165021502099E-20   1.04653874460116E-15
      1.29036035338584E-15  -5.00000000000000E-01  -5.00000000000000E-01   0.00000000000000E+00   0.00000000000000E+00
      0.00000000000000E+00   0.00000000000000E+00   0.00000000000000E+00  -5.05026083262261E-16
      0.00000000000000E+00
      0.00000000000000E+00   0.00000000000000E+00   0.00000000000000E+00   0.00000000000000E+00  -1.03255692288378E-15
     -2.53128863394441E-18  -1.03508821151773E-15   7.38467995280299E-16   1.00000000000000E+00   1.00000000000000E+00
      0.00000000000000E+00   0.00000000000000E+00   1.03511911613777E-15   2.15165021476982E-20   1.03514063263992E-15
      1.29036035279639E-15  -5.00000000000000E-01  -5.00000000000000E-01   0.00000000000000E+00   0.00000000000000E+00
      0.00000000000000E+00   0.00000000000000E+00   0.00000000000000E+00  -5.05026084809135E-16
      1.00000000000000E-03
      0.00000000000000E+00   0.00000000000000E+00   0.00000000000000E+00   0.00000000000000E+00  -1.13482453788265E-15
     -2.53270687041319E-18  -1.13735724475306E-15   7.38364786414992E-16   1.00000000000000E+00   1.00000000000000E+00
      0.00000000000000E+00   0.00000000000000E+00   9.93312462713212E-16   2.15164800530545E-20   9.93333979193265E-16
      1.29019932260922E-15  -4.98000000000000E-01  -4.98000000000000E-01   0.00000000000000E+00   0.00000000000000E+00
      0.00000000000000E+00   0.00000000000000E+00   0.00000000000000E+00  -5.03114599567874E-16
      2.17333333333333E-03
      0.00000000000000E+00   0.00000000000000E+00   0.00000000000000E+00   0.00000000000000E+00  -1.06663799819737E-15
     -2.53430172114374E-18  -1.06917229991852E-15   7.38243825465783E-16   1.00000000000000E+00   1.00000000000000E+00
      0.00000000000000E+00   0.00000000000000E+00   1.03333259334934E-15   2.15164550883782E-20   1.03335410980443E-15
      1.29001040068092E-15  -4.95653333333333E-01  -4.95653333333333E-01   0.00000000000000E+00   0.00000000000000E+00
      0.00000000000000E+00   0.00000000000000E+00   0.00000000000000E+00  -5.00873124216428E-16
      3.58133333333333E-03
      0.00000000000000E+00   0.00000000000000E+00   0.00000000000000E+00   0.00000000000000E+00  -1.04334561002177E-15
     -2.53612762057590E-18  -1.04588173764235E-15   7.38098811578850E-16   1.00000000000000E+00   1.00000000000000E+00
      0.00000000000000E+00   0.00000000000000E+00   1.05563727497564E-15   2.15164263486501E-20   1.05565879140199E-15
      1.28978369230317E-15  -4.92837333333333E-01  -4.92837333333333E-01   0.00000000000000E+00   0.00000000000000E+00
      0.00000000000000E+00   0.00000000000000E+00   0.00000000000000E+00  -4.98185346890582E-16
      5.25216000000000E-03
      0.00000000000000E+00   0.00000000000000E+00   0.00000000000000E+00   0.00000000000000E+00  -1.04239147725864E-15
     -2.53814024867144E-18  -1.04492961750731E-15   7.37927088628144E-16   1.00000000000000E+00   1.00000000000000E+00
      0.00000000000000E+00   0.00000000000000E+00   1.02858216374617E-15   2.15163943718868E-20   1.02860368014054E-15
      1.28951476382988E-15  -4.89495680000000E-01  -4.89495680000000E-01   0.00000000000000E+00   0.00000000000000E+00
      0.00000000000000E+00   0.00000000000000E+00   0.00000000000000E+00  -4.94998425598029E-16
      7.23487431111111E-03
      0.00000000000000E+00   0.00000000000000E+00   0.00000000000000E+00   0.00000000000000E+00  -1.03876571797516E-15
     -2.54031635400190E-18  -1.04130603432916E-15   7.37723795580462E-16   1.00000000000000E+00   1.00000000000000E+00
      0.00000000000000E+00   0.00000000000000E+00   1.04815377522223E-15   2.15163593499308E-20   1.04817529158158E-15
      1.28919576848474E-15  -4.85530251377778E-01  -4.85530251377778E-01   0.00000000000000E+00   0.00000000000000E+00
      0.00000000000000E+00   0.00000000000000E+00   0.00000000000000E+00  -4.91220290038160E-16
      9.58769529362963E-03
      0.00000000000000E+00   0.00000000000000E+00   0.00000000000000E+00   0.00000000000000E+00  -1.04924773025457E-15
     -2.54258820141346E-18  -1.05179031845598E-15   7.37483305831715E-16   1.00000000000000E+00   1.00000000000000E+00
      0.00000000000000E+00   0.00000000000000E+00   1.05642348044771E-15   2.15163220574140E-20   1.05644499676977E-15
      1.28881746674395E-15  -4.80824609412741E-01  -4.80824609412741E-01   0.00000000000000E+00   0.00000000000000E+00
      0.00000000000000E+00   0.00000000000000E+00   0.00000000000000E+00  -4.86742012312665E-16
      1.23797095262183E-02
      0.00000000000000E+00   0.00000000000000E+00   0.00000000000000E+00   0.00000000000000E+00  -1.06042585177625E-15
     -2.54482674484843E-18  -1.06297067852110E-15   7.37199100385684E-16   1.00000000000000E+00   1.00000000000000E+00
      0.00000000000000E+00   0.00000000000000E+00   1.04584704782934E-15   2.15162840738448E-20   1.04586856411341E-15
      1.28836897248714E-15  -4.75240580947563E-01  -4.75240580947563E-01   0.00000000000000E+00   0.00000000000000E+00
      0.00000000000000E+00   0.00000000000000E+00   0.00000000000000E+00  -4.81434882057717E-16
      1.56928997488901E-02
      0.00000000000000E+00   0.00000000000000E+00   0.00000000000000E+00   0.00000000000000E+00  -1.06791239477033E-15
     -2.54680534140218E-18  -1.07045920011173E-15   7.36863693733403E-16   1.00000000000000E+00   1.00000000000000E+00
      0.00000000000000E+00   0.00000000000000E+00   1.04951599778643E-15   2.15162482698485E-20   1.04953751403470E-15
      1.28783749601596E-15  -4.68614200502220E-01  -4.68614200502220E-01   0.00000000000000E+00   0.00000000000000E+00
      0.00000000000000E+00   0.00000000000000E+00   0.00000000000000E+00  -4.75146941174352E-16
      1.96245521464607E-02
      0.00000000000000E+00   0.00000000000000E+00   0.00000000000000E+00   0.00000000000000E+00  -1.07513719950302E-15
     -2.54814064595160E-18  -1.07768534014897E-15   7.36468615733749E-16   1.00000000000000E+00   1.00000000000000E+00
      0.00000000000000E+00   0.00000000000000E+00   1.01130748195157E-15   2.15162196039120E-20   1.01132899817117E-15
      1.28720807836290E-15  -4.60750895707079E-01  -4.60750895707079E-01   0.00000000000000E+00   0.00000000000000E+00
      0.00000000000000E+00   0.00000000000000E+00   0.00000000000000E+00  -4.67698963819999E-16
      2.42901129915778E-02
      0.00000000000000E+00   0.00000000000000E+00   0.00000000000000E+00   0.00000000000000E+00  -1.10980479060310E-15
     -2.54820086808604E-18  -1.11235299147119E-15   7.36004483250154E-16   1.00000000000000E+00   1.00000000000000E+00
      0.00000000000000E+00   0.00000000000000E+00   1.02979798495161E-15   2.15162063691020E-20   1.02981950115798E-15
      1.28646332658641E-15  -4.51419774016844E-01  -4.51419774016844E-01   0.00000000000000E+00   0.00000000000000E+00
      0.00000000000000E+00   0.00000000000000E+00   0.00000000000000E+00  -4.58879875501026E-16
      2.98265785277835E-02
      0.00000000000000E+00   0.00000000000000E+00   0.00000000000000E+00   0.00000000000000E+00  -1.16277830401985E-15
     -2.54595731824870E-18  -1.16532426133810E-15   7.35461266675589E-16   1.00000000000000E+00   1.00000000000000E+00
      0.00000000000000E+00   0.00000000000000E+00   1.00496584574760E-15   2.15162222381478E-20   1.00498736196984E-15
      1.28558319720348E-15  -4.40346842944433E-01  -4.40346842944433E-01   0.00000000000000E+00   0.00000000000000E+00
      0.00000000000000E+00   0.00000000000000E+00   0.00000000000000E+00  -4.48441613332465E-16
      3.63965176307475E-02
      0.00000000000000E+00   0.00000000000000E+00   0.00000000000000E+00   0.00000000000000E+00  -1.33470744981011E-15
     -2.53974579919232E-18  -1.33724719560931E-15   7.34828902751349E-16   1.00000000000000E+00   1.00000000000000E+00
      0.00000000000000E+00   0.00000000000000E+00   9.48213686197191E-16   2.15162896234834E-20   9.48235202486815E-16
      1.28454489326951E-15  -4.27206964738505E-01  -4.27206964738505E-01   0.00000000000000E+00   0.00000000000000E+00
      0.00000000000000E+00   0.00000000000000E+00   0.00000000000000E+00  -4.36093606053230E-16
      4.41928453662648E-02
      0.00000000000000E+00   0.00000000000000E+00   0.00000000000000E+00   0.00000000000000E+00  -1.04938800411987E-15
     -2.52690819215304E-18  -1.05191491231202E-15   7.34098390552546E-16   1.00000000000000E+00   1.00000000000000E+00
      0.00000000000000E+00   0.00000000000000E+00   1.04426859475901E-15   2.15164449283561E-20   1.04429011120394E-15
      1.28332291483872E-15  -4.11614309267470E-01  -4.11614309267470E-01   0.00000000000000E+00   0.00000000000000E+00
      0.00000000000000E+00   0.00000000000000E+00   0.00000000000000E+00  -4.21497590110481E-16
      5.33405365759384E-02
      0.00000000000000E+00   0.00000000000000E+00   0.00000000000000E+00   0.00000000000000E+00  -1.04430083998587E-15
     -2.50346061128736E-18  -1.04680430059715E-15   7.33273485908987E-16   1.00000000000000E+00   1.00000000000000E+00