DF-ISE text

Info {
  version   = 1.0
  type      = xyplot
  datasets  = [
    "time"
    "S OuterVoltage" "S InnerVoltage" "S QuasiFermiPotential" "S DisplacementCurrent" "S eCurrent"
    "S hCurrent" "S TotalCurrent" "S Charge" "D OuterVoltage" "D InnerVoltage"
    "D QuasiFermiPotential" "D DisplacementCurrent" "D eCurrent" "D hCurrent" "D TotalCurrent"
    "D Charge" "G OuterVoltage" "G InnerVoltage" "G QuasiFermiPotential" "G DisplacementCurrent"
    "G eCurrent" "G hCurrent" "G TotalCurrent" "G Charge" ]
  functions = [
    Time
    OuterVoltage InnerVoltage QuasiFermiPotential DisplacementCurrent eCurrent
    hCurrent TotalCurrent Charge OuterVoltage InnerVoltage
    QuasiFermiPotential DisplacementCurrent eCurrent hCurrent TotalCurrent
    Charge OuterVoltage InnerVoltage QuasiFermiPotential DisplacementCurrent
    eCurrent hCurrent TotalCurrent Charge ]
}

Data {
      0.00000000000000E+00
      0.00000000000000E+00   0.00000000000000E+00   0.00000000000000E+00   0.00000000000000E+00   9.74981562308664E-19
      6.73946077143694E-35   9.74981562308664E-19   8.87724257975079E-16   0.00000000000000E+00   0.00000000000000E+00
      0.00000000000000E+00   0.00000000000000E+00   1.24312393905026E-18   3.06997994658786E-35   1.24312393905026E-18
      9.72779390294814E-16  -5.00000000000000E-01  -5.00000000000000E-01   0.00000000000000E+00   0.00000000000000E+00
      0.00000000000000E+00   0.00000000000000E+00   0.00000000000000E+00  -2.51433565304107E-16
      0.00000000000000E+00
      0.00000000000000E+00   0.00000000000000E+00   0.00000000000000E+00   0.00000000000000E+00   2.40561016053956E-18
     -2.44772460497866E-32   2.40561016053953E-18   8.87724256919627E-16   0.00000000000000E+00   0.00000000000000E+00
      0.00000000000000E+00   0.00000000000000E+00  -7.67089317699054E-18  -2.44587749063922E-32  -7.67089317699056E-18
      9.72779389156135E-16  -5.00000000000000E-01  -5.00000000000000E-01   0.00000000000000E+00   0.00000000000000E+00
      0.00000000000000E+00   0.00000000000000E+00   0.00000000000000E+00  -2.51433565304322E-16
      1.00000000000000E-03
      0.00000000000000E+00   0.00000000000000E+00   0.00000000000000E+00   0.00000000000000E+00  -1.27805182163647E-17
     -5.99524281253143E-22  -1.27811177406459E-17   8.87329344749939E-16   1.00000000000000E-03   1.00000000000000E-03
      0.00000000000000E+00   0.00000000000000E+00   9.18346596183617E-18   3.01217183894534E-22   9.18376717902007E-18
      9.72999879023633E-16  -5.00000000000000E-01  -5.00000000000000E-01   0.00000000000000E+00   0.00000000000000E+00
      0.00000000000000E+00   0.00000000000000E+00   0.00000000000000E+00  -2.52190756496096E-16
      2.17333333333333E-03
      0.00000000000000E+00   0.00000000000000E+00   0.00000000000000E+00   0.00000000000000E+00  -1.86535561114513E-17
     -1.31674500793081E-21  -1.86548728564593E-17   8.86869440200303E-16   2.17333333333333E-03   2.17333333333333E-03
      0.00000000000000E+00   0.00000000000000E+00   1.58042342765153E-17   6.55094127174925E-22   1.58048893706424E-17
      9.73261713815339E-16  -5.00000000000000E-01  -5.00000000000000E-01   0.00000000000000E+00   0.00000000000000E+00
      0.00000000000000E+00   0.00000000000000E+00   0.00000000000000E+00  -2.53072566794293E-16
      3.56568888888889E-03
      0.00000000000000E+00   0.00000000000000E+00   0.00000000000000E+00   0.00000000000000E+00  -2.56484333219062E-17
     -2.18717588904319E-21  -2.56506204977953E-17   8.86328573049446E-16   3.56568888888889E-03   3.56568888888889E-03
      0.00000000000000E+00   0.00000000000000E+00   3.19268856041639E-17   1.07544240442415E-21   3.19279610465683E-17
      9.73576824887584E-16  -5.00000000000000E-01  -5.00000000000000E-01   0.00000000000000E+00   0.00000000000000E+00
      0.00000000000000E+00   0.00000000000000E+00   0.00000000000000E+00  -2.54109642384000E-16
      5.21795081481481E-03
      0.00000000000000E+00   0.00000000000000E+00   0.00000000000000E+00   0.00000000000000E+00  -4.12623906679538E-17
     -3.24733556144344E-21  -4.12656380035152E-17   8.85693688625127E-16   5.21795081481481E-03   5.21795081481481E-03
      0.00000000000000E+00   0.00000000000000E+00   3.87439088191748E-17   1.57448155315183E-21   3.87454833007280E-17
      9.73956984093159E-16  -5.00000000000000E-01  -5.00000000000000E-01   0.00000000000000E+00   0.00000000000000E+00
      0.00000000000000E+00   0.00000000000000E+00   0.00000000000000E+00  -2.55327068343560E-16
      7.17863496691358E-03
      0.00000000000000E+00   0.00000000000000E+00   0.00000000000000E+00   0.00000000000000E+00  -5.54709691024857E-17
     -4.54376547340425E-21  -5.54755128679591E-17   8.84950171121649E-16   7.17863496691358E-03   7.17863496691358E-03
      0.00000000000000E+00   0.00000000000000E+00   4.53575293693216E-17   2.16639263275228E-21   4.53596957619543E-17
      9.74416920788506E-16  -5.00000000000000E-01  -5.00000000000000E-01   0.00000000000000E+00   0.00000000000000E+00
      0.00000000000000E+00   0.00000000000000E+00   0.00000000000000E+00  -2.56752976316491E-16
      9.50531349407078E-03
      0.00000000000000E+00   0.00000000000000E+00   0.00000000000000E+00   0.00000000000000E+00  -6.96727116551251E-17
     -6.13613001133566E-21  -6.96788477851364E-17   8.84081927933577E-16   9.50531349407078E-03   9.50531349407078E-03
      0.00000000000000E+00   0.00000000000000E+00   6.75125641210151E-17   2.86739353506571E-21   6.75154315145502E-17
      9.74975189032187E-16  -5.00000000000000E-01  -5.00000000000000E-01   0.00000000000000E+00   0.00000000000000E+00
      0.00000000000000E+00   0.00000000000000E+00   0.00000000000000E+00  -2.58418424570578E-16
      1.22663053462973E-02
      0.00000000000000E+00   0.00000000000000E+00   0.00000000000000E+00   0.00000000000000E+00  -1.04571990169057E-16
     -8.10128365214552E-21  -1.04580091452709E-16   8.83071648546410E-16   1.22663053462973E-02   1.22663053462973E-02
      0.00000000000000E+00   0.00000000000000E+00   9.80363635517754E-17   3.69560794419922E-21   9.80400591597196E-17
      9.75655322789730E-16  -5.00000000000000E-01  -5.00000000000000E-01   0.00000000000000E+00   0.00000000000000E+00
      0.00000000000000E+00   0.00000000000000E+00   0.00000000000000E+00  -2.60356972082964E-16
      1.55426823442728E-02
      0.00000000000000E+00   0.00000000000000E+00   0.00000000000000E+00   0.00000000000000E+00  -1.38709771364452E-16
     -1.05385104547930E-20  -1.38720309874907E-16   8.81901330324302E-16   1.55426823442728E-02   1.55426823442728E-02
      0.00000000000000E+00   0.00000000000000E+00   1.12836384148157E-16   4.67054161105306E-21   1.12841054689768E-16
      9.76487375425475E-16  -5.00000000000000E-01  -5.00000000000000E-01   0.00000000000000E+00   0.00000000000000E+00
      0.00000000000000E+00   0.00000000000000E+00   0.00000000000000E+00  -2.62603786878380E-16
      1.94306497152037E-02
      0.00000000000000E+00   0.00000000000000E+00   0.00000000000000E+00   0.00000000000000E+00  -1.88336473456290E-16
     -1.35760109890049E-20  -1.88350049467279E-16   8.80553210361654E-16   1.94306497152037E-02   1.94306497152037E-02
      0.00000000000000E+00   0.00000000000000E+00   1.24956083275113E-16   5.81188511827905E-21   1.24961895160232E-16
      9.77509976497362E-16  -5.00000000000000E-01  -5.00000000000000E-01   0.00000000000000E+00   0.00000000000000E+00
      0.00000000000000E+00   0.00000000000000E+00   0.00000000000000E+00  -2.65194049658781E-16
      2.40443709953751E-02
      0.00000000000000E+00   0.00000000000000E+00   0.00000000000000E+00   0.00000000000000E+00  -3.92340090631904E-16
     -1.73783756283491E-20  -3.92357469007532E-16   8.79011276159125E-16   2.40443709953751E-02   2.40443709953751E-02
      0.00000000000000E+00   0.00000000000000E+00   1.68903941743214E-17   7.13721136442451E-21   1.68975313856858E-17
      9.78773059496009E-16  -5.00000000000000E-01  -5.00000000000000E-01   0.00000000000000E+00   0.00000000000000E+00
      0.00000000000000E+00   0.00000000000000E+00   0.00000000000000E+00  -2.68160360885334E-16
      2.95193202478451E-02
      0.00000000000000E+00   0.00000000000000E+00   0.00000000000000E+00   0.00000000000000E+00  -2.49462983383969E-16
     -2.21537960835365E-20  -2.49485137180052E-16   8.77263613883158E-16   2.95193202478451E-02   2.95193202478451E-02
      0.00000000000000E+00   0.00000000000000E+00   2.42960232971037E-16   8.65804599451987E-21   2.42968891017032E-16
      9.80341470197149E-16  -5.00000000000000E-01  -5.00000000000000E-01   0.00000000000000E+00   0.00000000000000E+00
      0.00000000000000E+00   0.00000000000000E+00   0.00000000000000E+00  -2.71528716519339E-16
      3.59432607040766E-02
      0.00000000000000E+00   0.00000000000000E+00   0.00000000000000E+00   0.00000000000000E+00  -2.99319080105504E-16
     -2.80890870329660E-20  -2.99347169192537E-16   8.75326979620837E-16   3.59432607040766E-02   3.59432607040766E-02
      0.00000000000000E+00   0.00000000000000E+00   3.05150112079589E-16   1.03549026987197E-20   3.05160466982288E-16
      9.82276911959220E-16  -5.00000000000000E-01  -5.00000000000000E-01   0.00000000000000E+00   0.00000000000000E+00
      0.00000000000000E+00   0.00000000000000E+00   0.00000000000000E+00  -2.75271697955846E-16
      4.34806841727216E-02
      0.00000000000000E+00   0.00000000000000E+00   0.00000000000000E+00   0.00000000000000E+00  -3.77911165329591E-16
     -3.54445528178775E-20  -3.77946609882409E-16   8.73211151522694E-16   4.34806841727216E-02   4.34806841727216E-02
      0.00000000000000E+00   0.00000000000000E+00   3.55388508724284E-16   1.22047713821973E-20   3.55400713495667E-16
      9.84676339589808E-16  -5.00000000000000E-01  -5.00000000000000E-01   0.00000000000000E+00   0.00000000000000E+00
      0.00000000000000E+00   0.00000000000000E+00   0.00000000000000E+00  -2.79377999567432E-16
      5.23245943759316E-02
      0.00000000000000E+00   0.00000000000000E+00   0.00000000000000E+00   0.00000000000000E+00  -4.95194927097574E-16
     -4.44854930586132E-20  -4.95239412590632E-16   8.70941520472973E-16   5.23245943759316E-02   5.23245943759316E-02
      0.00000000000000E+00   0.00000000000000E+00   3.82688102634153E-16   1.41578892934150E-20   3.82702260523447E-16
      9.87663022127914E-16  -5.00000000000000E-01  -5.00000000000000E-01   0.00000000000000E+00   0.00000000000000E+00
      0.00000000000000E+00   0.00000000000000E+00   0.00000000000000E+00  -2.83810175816548E-16
      6.27014490143648E-02
      0.00000000000000E+00   0.00000000000000E+00   0.00000000000000E+00   0.00000000000000E+00  -7.45196085383546E-16
     -5.54200218303763E-20  -7.45251505405376E-16   8.68564584927366E-16   6.27014490143648E-02   6.27014490143648E-02
      0.00000000000000E+00   0.00000000000000E+00   3.34580410379801E-16   1.61317702817590E-20   3.34596542150083E-16
      9.91391914319783E-16  -5.00000000000000E-01  -5.00000000000000E-01   0.00000000000000E+00   0.00000000000000E+00
      0.00000000000000E+00   0.00000000000000E+00   0.00000000000000E+00  -2.88495557548658E-16
      7.48769584567930E-02
      0.00000000000000E+00   0.00000000000000E+00   0.00000000000000E+00   0.00000000000000E+00  -6.21426905315126E-16
     -6.82828177403066E-20  -6.21495188132867E-16   8.66153216218405E-16   7.48769584567930E-02   7.48769584567930E-02
      0.00000000000000E+00   0.00000000000000E+00   6.07551390202831E-16   1.80121090903761E-20   6.07569402311921E-16
      9.96054045599074E-16  -5.00000000000000E-01  -5.00000000000000E-01   0.00000000000000E+00   0.00000000000000E+00
      0.00000000000000E+00   0.00000000000000E+00   0.00000000000000E+00  -2.93317754807467E-16
      8.90005494100098E-02
      0.00000000000000E+00   0.00000000000000E+00   0.00000000000000E+00   0.00000000000000E+00  -7.44439832476198E-16
     -8.26102091688118E-20  -7.44522442685367E-16   8.63832011184906E-16   8.90005494100098E-02   8.90005494100098E-02
      0.00000000000000E+00   0.00000000000000E+00   6.77865786750933E-16   1.96505676013461E-20   6.77885437318535E-16
      1.00180833202113E-15  -5.00000000000000E-01  -5.00000000000000E-01   0.00000000000000E+00   0.00000000000000E+00
      0.00000000000000E+00   0.00000000000000E+00   0.00000000000000E+00  -2.98065326001176E-16
      1.05383914915741E-01
      0.00000000000000E+00   0.00000000000000E+00   0.00000000000000E+00   0.00000000000000E+00  -9.46198191977922E-16
     -9.76047133818065E-20  -9.46295796691304E-16   8.61712906954529E-16   1.05383914915741E-01   1.05383914915741E-01
      0.00000000000000E+00   0.00000000000000E+00   6.95042791188401E-16   2.09396980567816E-20   6.95063730886458E-16
      1.00887480737980E-15  -5.00000000000000E-01  -5.00000000000000E-01   0.00000000000000E+00   0.00000000000000E+00
      0.00000000000000E+00   0.00000000000000E+00   0.00000000000000E+00  -3.02558550764783E-16
      1.24388618902390E-01
      0.00000000000000E+00   0.00000000000000E+00   0.00000000000000E+00   0.00000000000000E+00  -1.24531313424755E-15
     -1.12037333498863E-19  -1.24542517158105E-15   8.59904852068245E-16   1.24388618902390E-01   1.24388618902390E-01
      0.00000000000000E+00   0.00000000000000E+00   6.47088852819964E-16   2.18160605980492E-20   6.47110668880562E-16
      1.01747264595387E-15  -5.00000000000000E-01  -5.00000000000000E-01   0.00000000000000E+00   0.00000000000000E+00
      0.00000000000000E+00   0.00000000000000E+00   0.00000000000000E+00  -3.06626624773956E-16
      1.46434075526902E-01
      0.00000000000000E+00   0.00000000000000E+00   0.00000000000000E+00   0.00000000000000E+00  -9.83641896574194E-16
     -1.24559737148398E-19  -9.83766456311343E-16   8.58483878565658E-16   1.46434075526902E-01   1.46434075526902E-01
      0.00000000000000E+00   0.00000000000000E+00   9.61357637127595E-16   2.22671442338658E-20   9.61379904271829E-16
      1.02779100031070E-15  -5.00000000000000E-01  -5.00000000000000E-01   0.00000000000000E+00   0.00000000000000E+00
      0.00000000000000E+00   0.00000000000000E+00   0.00000000000000E+00  -3.10159765625337E-16
      1.71712865789676E-01
      0.00000000000000E+00   0.00000000000000E+00   0.00000000000000E+00   0.00000000000000E+00  -1.04032878021059E-15
     -1.34161147630949E-19  -1.04046294135822E-15   8.57472510591808E-16   1.71712865789676E-01   1.71712865789676E-01
      0.00000000000000E+00   0.00000000000000E+00   9.93581842091018E-16   2.23310216020900E-20   9.93604173112621E-16
      1.03982384671366E-15  -5.00000000000000E-01  -5.00000000000000E-01   0.00000000000000E+00   0.00000000000000E+00
      0.00000000000000E+00   0.00000000000000E+00   0.00000000000000E+00  -3.13130695170278E-16
      2.00699211957657E-01
      0.00000000000000E+00   0.00000000000000E+00   0.00000000000000E+00   0.00000000000000E+00  -1.06344426724752E-15
     -1.40806943707143E-19  -1.06358507419123E-15   8.56807452906526E-16   2.00699211957657E-01   2.00699211957657E-01
      0.00000000000000E+00   0.00000000000000E+00   1.02880427221519E-15   2.21374136815559E-20   1.02882640962887E-15
      1.05361801283693E-15  -5.00000000000000E-01  -5.00000000000000E-01   0.00000000000000E+00   0.00000000000000E+00
      0.00000000000000E+00   0.00000000000000E+00   0.00000000000000E+00  -3.15674530075353E-16
      2.33936888896941E-01
      0.00000000000000E+00   0.00000000000000E+00   0.00000000000000E+00   0.00000000000000E+00  -1.40087526701275E-15
     -1.45143651532982E-19  -1.40102041066428E-15   8.56387618644399E-16   2.33936888896941E-01   2.33936888896941E-01
      0.00000000000000E+00   0.00000000000000E+00   9.09482897251326E-16   2.18277940842570E-20   9.09504725045411E-16
      1.06922105651989E-15  -5.00000000000000E-01  -5.00000000000000E-01   0.00000000000000E+00   0.00000000000000E+00
      0.00000000000000E+00   0.00000000000000E+00   0.00000000000000E+00  -3.17994697338831E-16
      2.72492594146512E-01
      0.00000000000000E+00   0.00000000000000E+00   0.00000000000000E+00   0.00000000000000E+00  -1.21179938986449E-15
     -1.48185893553391E-19  -1.21194757575805E-15   8.56099393990171E-16   2.72492594146512E-01   2.72492594146512E-01
      0.00000000000000E+00   0.00000000000000E+00   1.02277355519687E-15   2.14667130949568E-20   1.02279502190997E-15
      1.08694483045266E-15  -5.00000000000000E-01  -5.00000000000000E-01   0.00000000000000E+00   0.00000000000000E+00
      0.00000000000000E+00   0.00000000000000E+00   0.00000000000000E+00  -3.20340860018081E-16
      3.17217212236013E-01
      0.00000000000000E+00   0.00000000000000E+00   0.00000000000000E+00   0.00000000000000E+00  -1.10957020677631E-15
     -1.51111738374546E-19  -1.10972131851469E-15   8.55826901114563E-16   3.17217212236013E-01   3.17217212236013E-01
      0.00000000000000E+00   0.00000000000000E+00   1.08470775368066E-15   2.10815331603224E-20   1.08472883521382E-15
      1.10704510094642E-15  -5.00000000000000E-01  -5.00000000000000E-01   0.00000000000000E+00   0.00000000000000E+00
      0.00000000000000E+00   0.00000000000000E+00   0.00000000000000E+00  -3.22955957685839E-16
      3.69097769219835E-01
      0.00000000000000E+00   0.00000000000000E+00   0.00000000000000E+00   0.00000000000000E+00  -1.12516462890611E-15
     -1.55510894140008E-19  -1.12532013980025E-15   8.55425571698936E-16   3.69097769219835E-01   3.69097769219835E-01
      0.00000000000000E+00   0.00000000000000E+00   1.14278854726503E-15   2.07129900490682E-20   1.14280926025508E-15
      1.12987418059728E-15  -5.00000000000000E-01  -5.00000000000000E-01   0.00000000000000E+00   0.00000000000000E+00
      0.00000000000000E+00   0.00000000000000E+00   0.00000000000000E+00  -3.26138949724098E-16
      4.28587474561284E-01
      0.00000000000000E+00   0.00000000000000E+00   0.00000000000000E+00   0.00000000000000E+00  -1.15423971891356E-15
     -1.63272858035148E-19  -1.15440299177160E-15   8.54740659227201E-16   4.28587474561284E-01   4.28587474561284E-01
      0.00000000000000E+00   0.00000000000000E+00   1.15322079614908E-15   2.05404559468886E-20   1.15324133660502E-15
      1.15556530695933E-15  -5.00000000000000E-01  -5.00000000000000E-01   0.00000000000000E+00   0.00000000000000E+00
      0.00000000000000E+00   0.00000000000000E+00   0.00000000000000E+00  -3.30180100684559E-16
      4.96009140614926E-01
      0.00000000000000E+00   0.00000000000000E+00   0.00000000000000E+00   0.00000000000000E+00  -1.19192516262298E-15
     -1.72008417204758E-19  -1.19209717104019E-15   8.54002646903684E-16   4.96009140614926E-01   4.96009140614926E-01
      0.00000000000000E+00   0.00000000000000E+00   1.18609562259774E-15   2.06829184017618E-20   1.18611630551614E-15
      1.18443125842145E-15  -5.00000000000000E-01  -5.00000000000000E-01   0.00000000000000E+00   0.00000000000000E+00
      0.00000000000000E+00   0.00000000000000E+00   0.00000000000000E+00  -3.34694145458173E-16
      5.72420362142387E-01
      0.00000000000000E+00   0.00000000000000E+00   0.00000000000000E+00   0.00000000000000E+00  -1.43604288337721E-15
     -1.83273477022058E-19  -1.43622615685423E-15   8.53097567708938E-16   5.72420362142387E-01   5.72420362142387E-01
      0.00000000000000E+00   0.00000000000000E+00   1.17172687848495E-15   2.08756746837365E-20   1.17174775415964E-15
      1.21686225536204E-15  -5.00000000000000E-01  -5.00000000000000E-01   0.00000000000000E+00   0.00000000000000E+00
      0.00000000000000E+00   0.00000000000000E+00   0.00000000000000E+00  -3.39928558008559E-16
      6.60038562827209E-01
      0.00000000000000E+00   0.00000000000000E+00   0.00000000000000E+00   0.00000000000000E+00  -1.57787400514370E-15
     -2.11944469821684E-19  -1.57808594961352E-15   8.50997227176653E-16   6.60038562827209E-01   6.60038562827209E-01
      0.00000000000000E+00   0.00000000000000E+00   1.28198671421903E-15   2.10588710221097E-20   1.28200777309006E-15
      1.25315919973562E-15  -5.00000000000000E-01  -5.00000000000000E-01   0.00000000000000E+00   0.00000000000000E+00
      0.00000000000000E+00   0.00000000000000E+00   0.00000000000000E+00  -3.47764009588148E-16
      7.60507432945804E-01
      0.00000000000000E+00   0.00000000000000E+00   0.00000000000000E+00   0.00000000000000E+00  -1.75134619635967E-15
     -2.92466835082729E-19  -1.75163866319475E-15   8.46226128225606E-16   7.60507432945804E-01   7.60507432945804E-01
      0.00000000000000E+00   0.00000000000000E+00   1.60501681786801E-15   2.12328381893036E-20   1.60503805070620E-15
      1.29309247660202E-15  -5.00000000000000E-01  -5.00000000000000E-01   0.00000000000000E+00   0.00000000000000E+00
      0.00000000000000E+00   0.00000000000000E+00   0.00000000000000E+00  -3.60800404295404E-16
      8.74372152413546E-01
      0.00000000000000E+00   0.00000000000000E+00   0.00000000000000E+00   0.00000000000000E+00  -2.22963793516302E-15
     -4.48096940941599E-19  -2.23008603210396E-15   8.39701312866453E-16   8.74372152413546E-01   8.74372152413546E-01
      0.00000000000000E+00   0.00000000000000E+00   2.07789116728889E-15   2.14018442708968E-20   2.07791256913317E-15
      1.33739893490184E-15  -5.00000000000000E-01  -5.00000000000000E-01   0.00000000000000E+00   0.00000000000000E+00
      0.00000000000000E+00   0.00000000000000E+00   0.00000000000000E+00  -3.77428540465910E-16
      1.00000000000000E+00
      0.00000000000000E+00   0.00000000000000E+00   0.00000000000000E+00   0.00000000000000E+00  -2.48048635093299E-15
     -6.11672983996800E-19  -2.48109802391699E-15   8.34828215842240E-16   1.00000000000000E+00   1.00000000000000E+00
      0.00000000000000E+00   0.00000000000000E+00   2.47409013913828E-15   2.15673612092129E-20   2.47411170649949E-15
      1.38729399575575E-15  -5.00000000000000E-01  -5.00000000000000E-01   0.00000000000000E+00   0.00000000000000E+00
      0.00000000000000E+00   0.00000000000000E+00   0.00000000000000E+00  -3.91708984345684E-16
      0.00000000000000E+00
      0.00000000000000E+00   0.00000000000000E+00   0.00000000000000E+00   0.00000000000000E+00  -2.45484791183810E-15
     -6.11669973611914E-19  -2.45545958181171E-15   8.34828293548768E-16   1.00000000000000E+00   1.00000000000000E+00
      0.00000000000000E+00   0.00000000000000E+00   2.46826083016101E-15   2.15673613672951E-20   2.46828239752238E-15
      1.38729404133605E-15  -5.00000000000000E-01  -5.00000000000000E-01   0.00000000000000E+00   0.00000000000000E+00
      0.00000000000000E+00   0.00000000000000E+00   0.00000000000000E+00  -3.91708851943965E-16
      1.00000000000000E-03
      0.00000000000000E+00   0.00000000000000E+00   0.00000000000000E+00   0.00000000000000E+00  -2.67750769415144E-15
     -6.12005737965563E-19  -2.67811969988941E-15   8.34794510085811E-16   1.00000000000000E+00   1.00000000000000E+00
      0.00000000000000E+00   0.00000000000000E+00   2.38007768316842E-15   2.15673428107450E-20   2.38009925051123E-15
      1.38719445017308E-15  -4.98000000000000E-01  -4.98000000000000E-01   0.00000000000000E+00   0.00000000000000E+00
      0.00000000000000E+00   0.00000000000000E+00   0.00000000000000E+00  -3.89449433417040E-16
      2.17333333333333E-03
      0.00000000000000E+00   0.00000000000000E+00   0.00000000000000E+00   0.00000000000000E+00  -2.52499758460129E-15
     -6.12423424178909E-19  -2.52561000802547E-15   8.34754193340771E-16   1.00000000000000E+00   1.00000000000000E+00
      0.00000000000000E+00   0.00000000000000E+00   2.44873485901879E-15   2.15673198046109E-20   2.44875642633860E-15
      1.38707718148257E-15  -4.95653333333333E-01  -4.95653333333333E-01   0.00000000000000E+00   0.00000000000000E+00
      0.00000000000000E+00   0.00000000000000E+00   0.00000000000000E+00  -3.86799864818320E-16
      3.58133333333333E-03
      0.00000000000000E+00   0.00000000000000E+00   0.00000000000000E+00   0.00000000000000E+00  -2.47527821984041E-15
     -6.12913642216864E-19  -2.47589113348262E-15   8.34706002916078E-16   1.00000000000000E+00   1.00000000000000E+00
      0.00000000000000E+00   0.00000000000000E+00   2.48201895917405E-15   2.15672927916790E-20   2.48204052646684E-15
      1.38693654491524E-15  -4.92837333333333E-01  -4.92837333333333E-01   0.00000000000000E+00   0.00000000000000E+00
      0.00000000000000E+00   0.00000000000000E+00   0.00000000000000E+00  -3.83620531641040E-16
      5.27093333333333E-03
      0.00000000000000E+00   0.00000000000000E+00   0.00000000000000E+00   0.00000000000000E+00  -2.55839500100551E-15
     -6.13472010564771E-19  -2.55900847301608E-15   8.34648806491711E-16   1.00000000000000E+00   1.00000000000000E+00
      0.00000000000000E+00   0.00000000000000E+00   2.42936563616866E-15   2.15672619657947E-20   2.42938720343063E-15
      1.38676811490110E-15  -4.89458133333333E-01  -4.89458133333333E-01   0.00000000000000E+00   0.00000000000000E+00
      0.00000000000000E+00   0.00000000000000E+00   0.00000000000000E+00  -3.79804943474293E-16
      7.29845333333333E-03
      0.00000000000000E+00   0.00000000000000E+00   0.00000000000000E+00   0.00000000000000E+00  -2.59925757040881E-15
     -6.14105678059791E-19  -2.59987167608687E-15   8.34580903858562E-16   1.00000000000000E+00   1.00000000000000E+00
      0.00000000000000E+00   0.00000000000000E+00   2.42306705859040E-15   2.15672269090347E-20   2.42308862581731E-15
      1.38656637512244E-15  -4.85403093333333E-01  -4.85403093333333E-01   0.00000000000000E+00   0.00000000000000E+00
      0.00000000000000E+00   0.00000000000000E+00   0.00000000000000E+00  -3.75225994766910E-16
      9.73147733333333E-03
      0.00000000000000E+00   0.00000000000000E+00   0.00000000000000E+00   0.00000000000000E+00  -2.48825551112576E-15
     -6.14810599998804E-19  -2.48887032172576E-15   8.34500547076314E-16   1.00000000000000E+00   1.00000000000000E+00
      0.00000000000000E+00   0.00000000000000E+00   2.48489929253261E-15   2.15671877803401E-20   2.48492085972039E-15
      1.38632486954590E-15  -4.80537045333333E-01  -4.80537045333333E-01   0.00000000000000E+00   0.00000000000000E+00
      0.00000000000000E+00   0.00000000000000E+00   0.00000000000000E+00  -3.69730812038113E-16
      1.26186658133333E-02
      0.00000000000000E+00   0.00000000000000E+00   0.00000000000000E+00   0.00000000000000E+00  -2.49088914342920E-15
     -6.15595845394527E-19  -2.49150473927459E-15   8.34406070923151E-16   1.00000000000000E+00   1.00000000000000E+00
      0.00000000000000E+00   0.00000000000000E+00   2.49592458031182E-15   2.15671440715022E-20   2.49594614745589E-15
      1.38603868609669E-15  -4.74762668373333E-01  -4.74762668373333E-01   0.00000000000000E+00   0.00000000000000E+00
      0.00000000000000E+00   0.00000000000000E+00   0.00000000000000E+00  -3.63210491782006E-16
      1.60447961429333E-02
      0.00000000000000E+00   0.00000000000000E+00   0.00000000000000E+00   0.00000000000000E+00  -2.50560607425571E-15
     -6.16443733153076E-19  -2.50622251798886E-15   8.34295479475394E-16   1.00000000000000E+00   1.00000000000000E+00
      0.00000000000000E+00   0.00000000000000E+00   2.48534788784852E-15   2.15670966383956E-20   2.48536945494516E-15
      1.38569981018677E-15  -4.67910407714133E-01  -4.67910407714133E-01   0.00000000000000E+00   0.00000000000000E+00
      0.00000000000000E+00   0.00000000000000E+00   0.00000000000000E+00  -3.55473531391017E-16
      2.01104708007253E-02
      0.00000000000000E+00   0.00000000000000E+00   0.00000000000000E+00   0.00000000000000E+00  -2.54651610714943E-15
     -6.17325666562924E-19  -2.54713343281600E-15   8.34166503284568E-16   1.00000000000000E+00   1.00000000000000E+00
      0.00000000000000E+00   0.00000000000000E+00   2.45922656345739E-15   2.15670468859028E-20   2.45924813050428E-15
      1.38529876593335E-15  -4.59779058398549E-01  -4.59779058398549E-01   0.00000000000000E+00   0.00000000000000E+00
      0.00000000000000E+00   0.00000000000000E+00   0.00000000000000E+00  -3.46292954809500E-16
      2.49350713946385E-02
      0.00000000000000E+00   0.00000000000000E+00   0.00000000000000E+00   0.00000000000000E+00  -2.61911774492013E-15
     -6.18197591651440E-19  -2.61973594251178E-15   8.34016565203163E-16   1.00000000000000E+00   1.00000000000000E+00
      0.00000000000000E+00   0.00000000000000E+00   2.43812731715825E-15   2.15669969963195E-20   2.43814888415525E-15
      1.38482434119395E-15  -4.50129857210723E-01  -4.50129857210723E-01   0.00000000000000E+00   0.00000000000000E+00
      0.00000000000000E+00   0.00000000000000E+00   0.00000000000000E+00  -3.35399885286350E-16
      3.06602640994155E-02
      0.00000000000000E+00   0.00000000000000E+00   0.00000000000000E+00   0.00000000000000E+00  -2.70535252256546E-15
     -6.18989587866889E-19  -2.70597151215333E-15   8.33842843338729E-16   1.00000000000000E+00   1.00000000000000E+00
      0.00000000000000E+00   0.00000000000000E+00   2.40895278547959E-15   2.15669504605403E-20   2.40897435243005E-15
      1.38426331476615E-15  -4.38679471801169E-01  -4.38679471801169E-01   0.00000000000000E+00   0.00000000000000E+00
      0.00000000000000E+00   0.00000000000000E+00   0.00000000000000E+00  -3.22475868258278E-16
      3.74541594424175E-02
      0.00000000000000E+00   0.00000000000000E+00   0.00000000000000E+00   0.00000000000000E+00  -2.88311163639415E-15
     -6.19596083361814E-19  -2.88373123247752E-15   8.33642241568659E-16   1.00000000000000E+00   1.00000000000000E+00
      0.00000000000000E+00   0.00000000000000E+00   2.34475256113700E-15   2.15669125751256E-20   2.34477412804958E-15
      1.38360005893795E-15  -4.25091681115165E-01  -4.25091681115165E-01   0.00000000000000E+00   0.00000000000000E+00
      0.00000000000000E+00   0.00000000000000E+00   0.00000000000000E+00  -3.07144145832984E-16
      4.55162485827798E-02
      0.00000000000000E+00   0.00000000000000E+00   0.00000000000000E+00   0.00000000000000E+00  -2.56115121299648E-15
     -6.19840452609712E-19  -2.56177105344909E-15   8.33411898418493E-16   1.00000000000000E+00   1.00000000000000E+00