DF-ISE text

Info {
  version   = 1.0
  type      = xyplot
  datasets  = [
    "time"
    "S OuterVoltage" "S InnerVoltage" "S QuasiFermiPotential" "S DisplacementCurrent" "S eCurrent"
    "S hCurrent" "S TotalCurrent" "S Charge" "D OuterVoltage" "D InnerVoltage"
    "D QuasiFermiPotential" "D DisplacementCurrent" "D eCurrent" "D hCurrent" "D TotalCurrent"
    "D Charge" "G OuterVoltage" "G InnerVoltage" "G QuasiFermiPotential" "G DisplacementCurrent"
    "G eCurrent" "G hCurrent" "G TotalCurrent" "G Charge" ]
  functions = [
    Time
    OuterVoltage InnerVoltage QuasiFermiPotential DisplacementCurrent eCurrent
    hCurrent TotalCurrent Charge OuterVoltage InnerVoltage
    QuasiFermiPotential DisplacementCurrent eCurrent hCurrent TotalCurrent
    Charge OuterVoltage InnerVoltage QuasiFermiPotential DisplacementCurrent
    eCurrent hCurrent TotalCurrent Charge ]
}

Data {
      0.00000000000000E+00
      0.00000000000000E+00   0.00000000000000E+00   0.00000000000000E+00   0.00000000000000E+00   4.73898559219110E-18
     -4.75705700597730E-35   4.73898559219110E-18   8.21622292302642E-16   0.00000000000000E+00   0.00000000000000E+00
      0.00000000000000E+00   0.00000000000000E+00   7.88422629673749E-19  -2.58921294231740E-35   7.88422629673749E-19
      1.00229577197099E-15  -5.00000000000000E-01  -5.00000000000000E-01   0.00000000000000E+00   0.00000000000000E+00
      0.00000000000000E+00   0.00000000000000E+00   0.00000000000000E+00  -3.89659516962817E-16
      0.00000000000000E+00
      0.00000000000000E+00   0.00000000000000E+00   0.00000000000000E+00   0.00000000000000E+00  -5.47824988768381E-18
      8.22572573133555E-31  -5.47824988768298E-18   8.21622287941251E-16   0.00000000000000E+00   0.00000000000000E+00
      0.00000000000000E+00   0.00000000000000E+00   2.94716494181348E-21   8.22603384609486E-31   2.94716494263609E-21
      1.00229576711490E-15  -5.00000000000000E-01  -5.00000000000000E-01   0.00000000000000E+00   0.00000000000000E+00
      0.00000000000000E+00   0.00000000000000E+00   0.00000000000000E+00  -3.89659516965201E-16
      1.00000000000000E-03
      0.00000000000000E+00   0.00000000000000E+00   0.00000000000000E+00   0.00000000000000E+00  -1.65193221484627E-17
     -8.77525598212846E-23  -1.65194099010225E-17   8.21506541271117E-16   1.00000000000000E-03   1.00000000000000E-03
      0.00000000000000E+00   0.00000000000000E+00   3.45463340918206E-12   2.72619179425963E-22   3.45463340945468E-12
      1.00283847831127E-15  -5.00000000000000E-01  -5.00000000000000E-01   0.00000000000000E+00   0.00000000000000E+00
      0.00000000000000E+00   0.00000000000000E+00   0.00000000000000E+00  -3.90005755332428E-16
      2.18666666666667E-03
      0.00000000000000E+00   0.00000000000000E+00   0.00000000000000E+00   0.00000000000000E+00   7.20586975036757E-18
     -1.91403316550790E-22   7.20567834705102E-18   8.21371149783651E-16   2.18666666666667E-03   2.18666666666667E-03
      0.00000000000000E+00   0.00000000000000E+00   2.57301051590061E-17   5.87302190254221E-22   2.57306924611964E-17
      1.00348419676620E-15  -5.00000000000000E-01  -5.00000000000000E-01   0.00000000000000E+00   0.00000000000000E+00
      0.00000000000000E+00   0.00000000000000E+00   0.00000000000000E+00  -3.90413543076235E-16
      3.59484444444444E-03
      0.00000000000000E+00   0.00000000000000E+00   0.00000000000000E+00   0.00000000000000E+00  -2.41193404578139E-17
     -3.13675717542901E-22  -2.41196541335314E-17   8.21213239306067E-16   3.59484444444444E-03   3.59484444444444E-03
      0.00000000000000E+00   0.00000000000000E+00  -1.60646606569544E-19   9.48575743465570E-22  -1.59698030826078E-19
      1.00425282461727E-15  -5.00000000000000E-01  -5.00000000000000E-01   0.00000000000000E+00   0.00000000000000E+00
      0.00000000000000E+00   0.00000000000000E+00   0.00000000000000E+00  -3.90893125082935E-16
      5.26588207407407E-03
      0.00000000000000E+00   0.00000000000000E+00   0.00000000000000E+00   0.00000000000000E+00   1.13804582899807E-17
     -4.57699992572431E-22   1.13800005899882E-17   8.21029680799049E-16   5.26588207407407E-03   5.26588207407407E-03
      0.00000000000000E+00   0.00000000000000E+00   5.75606931737725E-19   1.36061563149242E-21   5.76967547369217E-19
      1.00516820285921E-15  -5.00000000000000E-01  -5.00000000000000E-01   0.00000000000000E+00   0.00000000000000E+00
      0.00000000000000E+00   0.00000000000000E+00   0.00000000000000E+00  -3.91456217185066E-16
      7.24884672790123E-03
      0.00000000000000E+00   0.00000000000000E+00   0.00000000000000E+00   0.00000000000000E+00   3.38420703396175E-18
     -6.27011249239470E-22   3.38358002271251E-18   8.20817177049668E-16   7.24884672790123E-03   7.24884672790123E-03
      0.00000000000000E+00   0.00000000000000E+00   1.62155093331105E-17   1.82683253606561E-21   1.62173361656466E-17
      1.00625895251800E-15  -5.00000000000000E-01  -5.00000000000000E-01   0.00000000000000E+00   0.00000000000000E+00
      0.00000000000000E+00   0.00000000000000E+00   0.00000000000000E+00  -3.92116071102917E-16
      9.60196478377613E-03
      0.00000000000000E+00   0.00000000000000E+00   0.00000000000000E+00   0.00000000000000E+00  -2.34529745579826E-18
     -8.25540587198144E-22  -2.34612299638546E-18   8.20572370783706E-16   9.60196478377613E-03   9.60196478377613E-03
      0.00000000000000E+00   0.00000000000000E+00   1.47278359003062E-17   2.34928293758564E-21   1.47301851832438E-17
      1.00755946168333E-15  -5.00000000000000E-01  -5.00000000000000E-01   0.00000000000000E+00   0.00000000000000E+00
      0.00000000000000E+00   0.00000000000000E+00   0.00000000000000E+00  -3.92887543565902E-16
      1.23943315434143E-02
      0.00000000000000E+00   0.00000000000000E+00   0.00000000000000E+00   0.00000000000000E+00  -1.20636718895229E-17
     -1.05755241384500E-21  -1.20647294419367E-17   8.20292026843884E-16   1.23943315434143E-02   1.23943315434143E-02
      0.00000000000000E+00   0.00000000000000E+00   1.00588795760961E-17   2.92791464910621E-21   1.00618074907452E-17
      1.00911108681117E-15  -5.00000000000000E-01  -5.00000000000000E-01   0.00000000000000E+00   0.00000000000000E+00
      0.00000000000000E+00   0.00000000000000E+00   0.00000000000000E+00  -3.93787094891416E-16
      1.57079400981850E-02
      0.00000000000000E+00   0.00000000000000E+00   0.00000000000000E+00   0.00000000000000E+00  -8.11468712762237E-18
     -1.32751290004715E-21  -8.11601464052242E-18   8.19973291172827E-16   1.57079400981850E-02   1.57079400981850E-02
      0.00000000000000E+00   0.00000000000000E+00  -1.31708396702962E-17   3.55964608708972E-21  -1.31672800242091E-17
      1.01096358342492E-15  -5.00000000000000E-01  -5.00000000000000E-01   0.00000000000000E+00   0.00000000000000E+00
      0.00000000000000E+00   0.00000000000000E+00   0.00000000000000E+00  -3.94832721526424E-16
      1.96400889165129E-02
      0.00000000000000E+00   0.00000000000000E+00   0.00000000000000E+00   0.00000000000000E+00  -4.50424360686535E-17
     -1.63983226128132E-21  -4.50440759009148E-17   8.19614067599291E-16   1.96400889165129E-02   1.96400889165129E-02
      0.00000000000000E+00   0.00000000000000E+00   6.32692684856287E-18   4.23734938421791E-21   6.33116419794708E-18
      1.01317681520955E-15  -5.00000000000000E-01  -5.00000000000000E-01   0.00000000000000E+00   0.00000000000000E+00
      0.00000000000000E+00   0.00000000000000E+00   0.00000000000000E+00  -3.96043769643534E-16
      2.43062388475953E-02
      0.00000000000000E+00   0.00000000000000E+00   0.00000000000000E+00   0.00000000000000E+00   2.71960479617288E-18
     -1.99849672010482E-21   2.71760629945278E-18   8.19213450855282E-16   2.43062388475953E-02   2.43062388475953E-02
      0.00000000000000E+00   0.00000000000000E+00  -6.92039026360062E-18   4.94884459140533E-21  -6.91544141900922E-18
      1.01582267733591E-15  -5.00000000000000E-01  -5.00000000000000E-01   0.00000000000000E+00   0.00000000000000E+00
      0.00000000000000E+00   0.00000000000000E+00   0.00000000000000E+00  -3.97440738381281E-16
      2.98434034324797E-02
      0.00000000000000E+00   0.00000000000000E+00   0.00000000000000E+00   0.00000000000000E+00  -3.21588276293921E-17
     -2.40643277535227E-21  -3.21612340621675E-17   8.18772336163419E-16   2.98434034324797E-02   2.98434034324797E-02
      0.00000000000000E+00   0.00000000000000E+00   4.38240373750398E-17   5.67621986263542E-21   4.38297135949024E-17
      1.01898733727299E-15  -5.00000000000000E-01  -5.00000000000000E-01   0.00000000000000E+00   0.00000000000000E+00
      0.00000000000000E+00   0.00000000000000E+00   0.00000000000000E+00  -3.99044901961029E-16
      3.64141720732093E-02
      0.00000000000000E+00   0.00000000000000E+00   0.00000000000000E+00   0.00000000000000E+00  -4.05630664808909E-17
     -2.86475918890931E-21  -4.05659312400798E-17   8.18293957480365E-16   3.64141720732093E-02   3.64141720732093E-02
      0.00000000000000E+00   0.00000000000000E+00   1.41181396822839E-17   6.39578776734699E-21   1.41245354700512E-17
      1.02277349988424E-15  -5.00000000000000E-01  -5.00000000000000E-01   0.00000000000000E+00   0.00000000000000E+00
      0.00000000000000E+00   0.00000000000000E+00   0.00000000000000E+00  -4.00878154954806E-16
      4.42114841935417E-02
      0.00000000000000E+00   0.00000000000000E+00   0.00000000000000E+00   0.00000000000000E+00  -4.14605399435856E-17
     -3.37195403507313E-21  -4.14639118976207E-17   8.17784287777615E-16   4.42114841935417E-02   4.42114841935417E-02
      0.00000000000000E+00   0.00000000000000E+00   2.13619196387445E-17   7.07921642493198E-21   2.13689988551694E-17
      1.02730255451606E-15  -5.00000000000000E-01  -5.00000000000000E-01   0.00000000000000E+00   0.00000000000000E+00
      0.00000000000000E+00   0.00000000000000E+00   0.00000000000000E+00  -4.02963207141251E-16
      5.34642945763361E-02
      0.00000000000000E+00   0.00000000000000E+00   0.00000000000000E+00   0.00000000000000E+00  -3.86638807266479E-17
     -3.92327665761202E-21  -3.86678040033055E-17   8.17251971896368E-16   5.34642945763361E-02   5.34642945763361E-02
      0.00000000000000E+00   0.00000000000000E+00   1.27863285961598E-17   7.69625409604041E-21   1.27940248502559E-17
      1.03271616327727E-15  -5.00000000000000E-01  -5.00000000000000E-01   0.00000000000000E+00   0.00000000000000E+00
      0.00000000000000E+00   0.00000000000000E+00   0.00000000000000E+00  -4.05324664156119E-16
      6.44442962305855E-02
      0.00000000000000E+00   0.00000000000000E+00   0.00000000000000E+00   0.00000000000000E+00  -8.09528102718664E-18
     -4.51119040429158E-21  -8.09979221759093E-18   8.16707238854612E-16   6.44442962305855E-02   6.44442962305855E-02
      0.00000000000000E+00   0.00000000000000E+00   3.83428489439721E-17   8.21906426297023E-21   3.83510680082350E-17
      1.03917661758433E-15  -5.00000000000000E-01  -5.00000000000000E-01   0.00000000000000E+00   0.00000000000000E+00
      0.00000000000000E+00   0.00000000000000E+00   0.00000000000000E+00  -4.07991879292606E-16
      7.73274981715715E-02
      0.00000000000000E+00   0.00000000000000E+00   0.00000000000000E+00   0.00000000000000E+00   3.60432065818149E-19
     -5.12126024841269E-21   3.55310805569737E-19   8.16164937735037E-16   7.73274981715715E-02   7.73274981715715E-02
      0.00000000000000E+00   0.00000000000000E+00   5.63128082180212E-18   8.62371436055278E-21   5.63990453616268E-18
      1.04677899298057E-15  -5.00000000000000E-01  -5.00000000000000E-01   0.00000000000000E+00   0.00000000000000E+00
      0.00000000000000E+00   0.00000000000000E+00   0.00000000000000E+00  -4.10971319020549E-16
      9.24437884489950E-02
      0.00000000000000E+00   0.00000000000000E+00   0.00000000000000E+00   0.00000000000000E+00  -4.06843646433663E-17
     -5.75122943562526E-21  -4.06901158728019E-17   8.15627480019641E-16   9.24437884489950E-02   9.24437884489950E-02
      0.00000000000000E+00   0.00000000000000E+00   8.67775384826744E-18   8.90519647213553E-21   8.68665904473957E-18
      1.05569018959501E-15  -5.00000000000000E-01  -5.00000000000000E-01   0.00000000000000E+00   0.00000000000000E+00
      0.00000000000000E+00   0.00000000000000E+00   0.00000000000000E+00  -4.14314450844871E-16
      1.10180235707839E-01
      0.00000000000000E+00   0.00000000000000E+00   0.00000000000000E+00   0.00000000000000E+00  -3.94583885326431E-17
     -6.41355488953040E-21  -3.94648020875327E-17   8.15085107929099E-16   1.10180235707839E-01   1.10180235707839E-01
      0.00000000000000E+00   0.00000000000000E+00   1.50484507923784E-17   9.06800754311650E-21   1.50575187999215E-17
      1.06608318515989E-15  -5.00000000000000E-01  -5.00000000000000E-01   0.00000000000000E+00   0.00000000000000E+00
      0.00000000000000E+00   0.00000000000000E+00   0.00000000000000E+00  -4.18101233358219E-16
      1.30991000491548E-01
      0.00000000000000E+00   0.00000000000000E+00   0.00000000000000E+00   0.00000000000000E+00  -4.44789409400458E-17
     -7.15042403015832E-21  -4.44860913640759E-17   8.14506839331743E-16   1.30991000491548E-01   1.30991000491548E-01
      0.00000000000000E+00   0.00000000000000E+00   5.11510667950842E-17   9.12371145333946E-21   5.11601905065375E-17
      1.07813285833002E-15  -5.00000000000000E-01  -5.00000000000000E-01   0.00000000000000E+00   0.00000000000000E+00
      0.00000000000000E+00   0.00000000000000E+00   0.00000000000000E+00  -4.22455637953006E-16
      1.55408964504435E-01
      0.00000000000000E+00   0.00000000000000E+00   0.00000000000000E+00   0.00000000000000E+00  -3.46615091773672E-17
     -8.06150936757282E-21  -3.46695706867348E-17   8.13825421794225E-16   1.55408964504435E-01   1.55408964504435E-01
      0.00000000000000E+00   0.00000000000000E+00   4.86743117902436E-17   9.09632471290801E-21   4.86834081149565E-17
      1.09201277996340E-15  -5.00000000000000E-01  -5.00000000000000E-01   0.00000000000000E+00   0.00000000000000E+00
      0.00000000000000E+00   0.00000000000000E+00   0.00000000000000E+00  -4.27570461037203E-16
      1.84059375612888E-01
      0.00000000000000E+00   0.00000000000000E+00   0.00000000000000E+00   0.00000000000000E+00  -4.23835711471766E-17
     -9.36074858322729E-21  -4.23929318957599E-17   8.12911435682641E-16   1.84059375612888E-01   1.84059375612888E-01
      0.00000000000000E+00   0.00000000000000E+00   4.38679345560263E-17   9.02009080815725E-21   4.38769546468344E-17
      1.10789260185493E-15  -5.00000000000000E-01  -5.00000000000000E-01   0.00000000000000E+00   0.00000000000000E+00
      0.00000000000000E+00   0.00000000000000E+00   0.00000000000000E+00  -4.33748660671883E-16
      2.17675857980139E-01
      0.00000000000000E+00   0.00000000000000E+00   0.00000000000000E+00   0.00000000000000E+00  -8.26775555669547E-17
     -1.14797889364003E-20  -8.26890353558911E-17   8.11545849306445E-16   2.17675857980139E-01   2.17675857980139E-01
      0.00000000000000E+00   0.00000000000000E+00   5.07926928926320E-17   8.91999463512666E-21   5.08016128872671E-17
      1.12594359712366E-15  -5.00000000000000E-01  -5.00000000000000E-01   0.00000000000000E+00   0.00000000000000E+00
      0.00000000000000E+00   0.00000000000000E+00   0.00000000000000E+00  -4.41446495972980E-16
      2.57119197291048E-01
      0.00000000000000E+00   0.00000000000000E+00   0.00000000000000E+00   0.00000000000000E+00  -5.97211372631039E-17
     -1.51569117183275E-20  -5.97362941748222E-17   8.09469356572221E-16   2.57119197291048E-01   2.57119197291048E-01
      0.00000000000000E+00   0.00000000000000E+00   8.09724349221027E-17   8.80752905507943E-21   8.09812424511577E-17
      1.14640512035815E-15  -5.00000000000000E-01  -5.00000000000000E-01   0.00000000000000E+00   0.00000000000000E+00
      0.00000000000000E+00   0.00000000000000E+00   0.00000000000000E+00  -4.51198698415530E-16
      3.02873470891702E-01
      0.00000000000000E+00   0.00000000000000E+00   0.00000000000000E+00   0.00000000000000E+00  -1.03079405677898E-16
     -2.10615541554476E-20  -1.03100467232053E-16   8.06698272677784E-16   3.02873470891702E-01   3.02873470891702E-01
      0.00000000000000E+00   0.00000000000000E+00   5.43561046028968E-17   8.68861799392820E-21   5.43647932208907E-17
      1.16954958865616E-15  -5.00000000000000E-01  -5.00000000000000E-01   0.00000000000000E+00   0.00000000000000E+00
      0.00000000000000E+00   0.00000000000000E+00   0.00000000000000E+00  -4.63052462172098E-16
      3.55948428268461E-01
      0.00000000000000E+00   0.00000000000000E+00   0.00000000000000E+00   0.00000000000000E+00  -1.35310050481494E-16
     -2.87319529417102E-20  -1.35338782434436E-16   8.03793858413209E-16   3.55948428268461E-01   3.55948428268461E-01
      0.00000000000000E+00   0.00000000000000E+00   9.86465223388398E-17   8.57165137182657E-21   9.86550939902116E-17
      1.19635484863139E-15  -5.00000000000000E-01  -5.00000000000000E-01   0.00000000000000E+00   0.00000000000000E+00
      0.00000000000000E+00   0.00000000000000E+00   0.00000000000000E+00  -4.76318149420713E-16
      4.17515378825501E-01
      0.00000000000000E+00   0.00000000000000E+00   0.00000000000000E+00   0.00000000000000E+00  -1.37197904532112E-16
     -3.64390274978400E-20  -1.37234343559610E-16   8.01399743505455E-16   4.17515378825501E-01   4.17515378825501E-01
      0.00000000000000E+00   0.00000000000000E+00   1.46266780012997E-16   8.51241249688096E-21   1.46275292425494E-16
      1.22790440381947E-15  -5.00000000000000E-01  -5.00000000000000E-01   0.00000000000000E+00   0.00000000000000E+00
      0.00000000000000E+00   0.00000000000000E+00   0.00000000000000E+00  -4.90223749393999E-16
      4.88933041471667E-01
      0.00000000000000E+00   0.00000000000000E+00   0.00000000000000E+00   0.00000000000000E+00  -1.79762989516539E-16
     -4.36550398934919E-20  -1.79806644556432E-16   7.99488137015026E-16   4.88933041471667E-01   4.88933041471667E-01
      0.00000000000000E+00   0.00000000000000E+00   1.65799402032059E-16   8.55373673583107E-21   1.65807955768795E-16
      1.26484790029777E-15  -5.00000000000000E-01  -5.00000000000000E-01   0.00000000000000E+00   0.00000000000000E+00
      0.00000000000000E+00   0.00000000000000E+00   0.00000000000000E+00  -5.05055734922036E-16
      5.71777530141220E-01
      0.00000000000000E+00   0.00000000000000E+00   0.00000000000000E+00   0.00000000000000E+00  -2.03348260007371E-16
     -5.08554710790866E-20  -2.03399115478450E-16   7.97815389699005E-16   5.71777530141220E-01   5.71777530141220E-01
      0.00000000000000E+00   0.00000000000000E+00   1.68153474807389E-16   8.61072497402472E-21   1.68162085532363E-16
      1.30777688605124E-15  -5.00000000000000E-01  -5.00000000000000E-01   0.00000000000000E+00   0.00000000000000E+00
      0.00000000000000E+00   0.00000000000000E+00   0.00000000000000E+00  -5.21461914259129E-16
      6.67877136997902E-01
      0.00000000000000E+00   0.00000000000000E+00   0.00000000000000E+00   0.00000000000000E+00  -1.83571304437725E-16
     -6.03544627931981E-20  -1.83631658900518E-16   7.95884040492438E-16   6.67877136997902E-01   6.67877136997902E-01
      0.00000000000000E+00   0.00000000000000E+00   1.57804952649298E-16   8.66418551367947E-21   1.57813616834812E-16
      1.35722020132801E-15  -5.00000000000000E-01  -5.00000000000000E-01   0.00000000000000E+00   0.00000000000000E+00
      0.00000000000000E+00   0.00000000000000E+00   0.00000000000000E+00  -5.40500813877475E-16
      7.76790024768808E-01
      0.00000000000000E+00   0.00000000000000E+00   0.00000000000000E+00   0.00000000000000E+00  -2.74014389198158E-16
     -8.48730321526947E-20  -2.74099262230311E-16   7.91904898759432E-16   7.76790024768808E-01   7.76790024768808E-01
      0.00000000000000E+00   0.00000000000000E+00   2.35692697251287E-16   8.71286700492490E-21   2.35701410118292E-16
      1.41161011878184E-15  -5.00000000000000E-01  -5.00000000000000E-01   0.00000000000000E+00   0.00000000000000E+00
      0.00000000000000E+00   0.00000000000000E+00   0.00000000000000E+00  -5.64702890541290E-16
      9.03128974583059E-01
      0.00000000000000E+00   0.00000000000000E+00   0.00000000000000E+00   0.00000000000000E+00  -3.72481126458057E-16
     -1.72810141250068E-19  -3.72653936599307E-16   7.83138893801689E-16   9.03128974583059E-01   9.03128974583059E-01
      0.00000000000000E+00   0.00000000000000E+00   4.64756645551553E-16   8.75761286700971E-21   4.64765403164420E-16
      1.47144160276211E-15  -5.00000000000000E-01  -5.00000000000000E-01   0.00000000000000E+00   0.00000000000000E+00
      0.00000000000000E+00   0.00000000000000E+00   0.00000000000000E+00  -5.98697743978053E-16
      1.00000000000000E+00
      0.00000000000000E+00   0.00000000000000E+00   0.00000000000000E+00   0.00000000000000E+00  -5.16673760345192E-16
     -2.80930874798311E-19  -5.16954691219990E-16   7.76875871580071E-16   1.00000000000000E+00   1.00000000000000E+00
      0.00000000000000E+00   0.00000000000000E+00   5.40416068552733E-16   8.78783043320996E-21   5.40424856383166E-16
      1.51739045260951E-15  -5.00000000000000E-01  -5.00000000000000E-01   0.00000000000000E+00   0.00000000000000E+00
      0.00000000000000E+00   0.00000000000000E+00   0.00000000000000E+00  -6.23968647038511E-16
      0.00000000000000E+00
      0.00000000000000E+00   0.00000000000000E+00   0.00000000000000E+00   0.00000000000000E+00  -4.88156579988767E-16
     -2.80931546597062E-19  -4.88437511535364E-16   7.76875840450669E-16   1.00000000000000E+00   1.00000000000000E+00
      0.00000000000000E+00   0.00000000000000E+00   5.47777758508388E-16   8.78783041317492E-21   5.47786546338802E-16
      1.51739043175713E-15  -5.00000000000000E-01  -5.00000000000000E-01   0.00000000000000E+00   0.00000000000000E+00
      0.00000000000000E+00   0.00000000000000E+00   0.00000000000000E+00  -6.23968691607488E-16
      1.00000000000000E-03
      0.00000000000000E+00   0.00000000000000E+00   0.00000000000000E+00   0.00000000000000E+00  -5.29729432428015E-16
     -2.79165368432631E-19  -5.30008597796447E-16   7.76853332411834E-16   1.00000000000000E+00   1.00000000000000E+00
      0.00000000000000E+00   0.00000000000000E+00   4.91403942863923E-16   8.78788289985370E-21   4.91412730746823E-16
      1.51710881805428E-15  -4.98000000000000E-01  -4.98000000000000E-01   0.00000000000000E+00   0.00000000000000E+00
      0.00000000000000E+00   0.00000000000000E+00   0.00000000000000E+00  -6.21923234193365E-16
      2.16000000000000E-03
      0.00000000000000E+00   0.00000000000000E+00   0.00000000000000E+00   0.00000000000000E+00  -5.01006226632922E-16
     -2.77134750220994E-19  -5.01283361383143E-16   7.76826768714763E-16   1.00000000000000E+00   1.00000000000000E+00
      0.00000000000000E+00   0.00000000000000E+00   4.90190854253032E-16   8.78794362559849E-21   4.90199642196658E-16
      1.51678149606186E-15  -4.95680000000000E-01  -4.95680000000000E-01   0.00000000000000E+00   0.00000000000000E+00
      0.00000000000000E+00   0.00000000000000E+00   0.00000000000000E+00  -6.19554073267670E-16
      3.53653333333333E-03
      0.00000000000000E+00   0.00000000000000E+00   0.00000000000000E+00   0.00000000000000E+00  -4.98363081319869E-16
     -2.74747989296447E-19  -4.98637829309165E-16   7.76794713031132E-16   1.00000000000000E+00   1.00000000000000E+00
      0.00000000000000E+00   0.00000000000000E+00   4.90042232873977E-16   8.78801552988517E-21   4.90051020889507E-16
      1.51639222642768E-15  -4.92926933333333E-01  -4.92926933333333E-01   0.00000000000000E+00   0.00000000000000E+00
      0.00000000000000E+00   0.00000000000000E+00   0.00000000000000E+00  -6.16747561664793E-16
      5.17001955555556E-03
      0.00000000000000E+00   0.00000000000000E+00   0.00000000000000E+00   0.00000000000000E+00  -5.16944123201674E-16
     -2.71949620387107E-19  -5.17216072822061E-16   7.76755824559319E-16   1.00000000000000E+00   1.00000000000000E+00
      0.00000000000000E+00   0.00000000000000E+00   4.92381288041549E-16   8.78810057274321E-21   4.92390076142122E-16
      1.51592902048905E-15  -4.89659960888889E-01  -4.89659960888889E-01   0.00000000000000E+00   0.00000000000000E+00
      0.00000000000000E+00   0.00000000000000E+00   0.00000000000000E+00  -6.13424298231259E-16
      7.10842320592592E-03
      0.00000000000000E+00   0.00000000000000E+00   0.00000000000000E+00   0.00000000000000E+00  -4.84773324732433E-16
     -2.68677513259652E-19  -4.85042002245693E-16   7.76708404730911E-16   1.00000000000000E+00   1.00000000000000E+00
      0.00000000000000E+00   0.00000000000000E+00   4.95894131732672E-16   8.78820104275601E-21   4.95902919933715E-16
      1.51537748412931E-15  -4.85783153588148E-01  -4.85783153588148E-01   0.00000000000000E+00   0.00000000000000E+00
      0.00000000000000E+00   0.00000000000000E+00   0.00000000000000E+00  -6.09491009510103E-16
      9.40866220436543E-03
      0.00000000000000E+00   0.00000000000000E+00   0.00000000000000E+00   0.00000000000000E+00  -5.37791744633291E-16
     -2.64864500203586E-19  -5.38056609133494E-16   7.76650209360561E-16   1.00000000000000E+00   1.00000000000000E+00
      0.00000000000000E+00   0.00000000000000E+00   4.88344495499796E-16   8.78831955421389E-21   4.88353283819350E-16
      1.51472024403145E-15  -4.81182675591269E-01  -4.81182675591269E-01   0.00000000000000E+00   0.00000000000000E+00
      0.00000000000000E+00   0.00000000000000E+00   0.00000000000000E+00  -6.04838500658379E-16
      1.21382791491803E-02
      0.00000000000000E+00   0.00000000000000E+00   0.00000000000000E+00   0.00000000000000E+00  -5.32141258712488E-16
     -2.60440117259133E-19  -5.32401698829747E-16   7.76578229244929E-16   1.00000000000000E+00   1.00000000000000E+00
      0.00000000000000E+00   0.00000000000000E+00   5.00004476379613E-16   8.78845905243805E-21   5.00013264838666E-16
      1.51393624942725E-15  -4.75723441701639E-01  -4.75723441701639E-01   0.00000000000000E+00   0.00000000000000E+00
      0.00000000000000E+00   0.00000000000000E+00   0.00000000000000E+00  -5.99339394635719E-16
      1.53774245903606E-02
      0.00000000000000E+00   0.00000000000000E+00   0.00000000000000E+00   0.00000000000000E+00  -5.40300802361339E-16
     -2.55333944624970E-19  -5.40556136305964E-16   7.76488353870228E-16   1.00000000000000E+00   1.00000000000000E+00
      0.00000000000000E+00   0.00000000000000E+00   5.30801217753431E-16   8.78862278113965E-21   5.30810006376212E-16
      1.51299986513796E-15  -4.69245150819279E-01  -4.69245150819279E-01   0.00000000000000E+00   0.00000000000000E+00
      0.00000000000000E+00   0.00000000000000E+00   0.00000000000000E+00  -5.92845818110871E-16
      1.92212105138946E-02
      0.00000000000000E+00   0.00000000000000E+00   0.00000000000000E+00   0.00000000000000E+00  -4.97457928601548E-16
     -2.49483014948687E-19  -4.97707411616497E-16   7.76374763770187E-16   1.00000000000000E+00   1.00000000000000E+00
      0.00000000000000E+00   0.00000000000000E+00   4.96786359108422E-16   8.78881412504834E-21   4.96795147922547E-16
      1.51187961980121E-15  -4.61557578972211E-01  -4.61557578972211E-01   0.00000000000000E+00   0.00000000000000E+00
      0.00000000000000E+00   0.00000000000000E+00   0.00000000000000E+00  -5.85187329937403E-16
      2.37312526641745E-02
      0.00000000000000E+00   0.00000000000000E+00   0.00000000000000E+00   0.00000000000000E+00  -5.09510859804095E-16
     -2.42905591529124E-19  -5.09753765395625E-16   7.76231245745598E-16   1.00000000000000E+00   1.00000000000000E+00
      0.00000000000000E+00   0.00000000000000E+00   4.96888961872528E-16   8.78903419577566E-21   4.96897750906724E-16
      1.51055207323204E-15  -4.52537494671651E-01  -4.52537494671651E-01   0.00000000000000E+00   0.00000000000000E+00
      0.00000000000000E+00   0.00000000000000E+00   0.00000000000000E+00  -5.76269452411740E-16
      2.90230354538362E-02
      0.00000000000000E+00   0.00000000000000E+00   0.00000000000000E+00   0.00000000000000E+00  -5.23706857443315E-16
     -2.35589038192560E-19  -5.23942446481507E-16   7.76047327688592E-16   1.00000000000000E+00   1.00000000000000E+00
      0.00000000000000E+00   0.00000000000000E+00   5.45528491032979E-16   8.78928548068440E-21   5.45537280318460E-16
      1.50897525428187E-15  -4.41953929092328E-01  -4.41953929092328E-01   0.00000000000000E+00   0.00000000000000E+00
      0.00000000000000E+00   0.00000000000000E+00   0.00000000000000E+00  -5.65904224354279E-16
      3.52320605937060E-02
      0.00000000000000E+00   0.00000000000000E+00   0.00000000000000E+00   0.00000000000000E+00  -5.06730998299412E-16
     -2.27555050684666E-19  -5.06958553350097E-16   7.75808201650118E-16   1.00000000000000E+00   1.00000000000000E+00
      0.00000000000000E+00   0.00000000000000E+00   4.62372313190677E-16   8.78956971505128E-21   4.62381102760392E-16
      1.50709741522800E-15  -4.29535878812588E-01  -4.29535878812588E-01   0.00000000000000E+00   0.00000000000000E+00
      0.00000000000000E+00   0.00000000000000E+00   0.00000000000000E+00  -5.53884281904991E-16
      4.25173167578198E-02
      0.00000000000000E+00   0.00000000000000E+00   0.00000000000000E+00   0.00000000000000E+00  -5.40493538286502E-16
     -2.18876396436258E-19  -5.40712414682939E-16   7.75492634262940E-16   1.00000000000000E+00   1.00000000000000E+00
      0.00000000000000E+00   0.00000000000000E+00   4.89019955434161E-16   8.78988714683502E-21   4.89028745321308E-16
      1.50485444453374E-15  -4.14965366484360E-01  -4.14965366484360E-01   0.00000000000000E+00   0.00000000000000E+00
      0.00000000000000E+00   0.00000000000000E+00   0.00000000000000E+00  -5.39984914136562E-16
      5.10653506570467E-02
      0.00000000000000E+00   0.00000000000000E+00   0.00000000000000E+00   0.00000000000000E+00  -5.24228600195815E-16
     -2.09695713631829E-19  -5.24438295909447E-16   7.75069962052572E-16   1.00000000000000E+00   1.00000000000000E+00