DF-ISE text

Info {
  version   = 1.0
  type      = xyplot
  datasets  = [
    "time"
    "S OuterVoltage" "S InnerVoltage" "S QuasiFermiPotential" "S DisplacementCurrent" "S eCurrent"
    "S hCurrent" "S TotalCurrent" "S Charge" "D OuterVoltage" "D InnerVoltage"
    "D QuasiFermiPotential" "D DisplacementCurrent" "D eCurrent" "D hCurrent" "D TotalCurrent"
    "D Charge" "G OuterVoltage" "G InnerVoltage" "G QuasiFermiPotential" "G DisplacementCurrent"
    "G eCurrent" "G hCurrent" "G TotalCurrent" "G Charge" ]
  functions = [
    Time
    OuterVoltage InnerVoltage QuasiFermiPotential DisplacementCurrent eCurrent
    hCurrent TotalCurrent Charge OuterVoltage InnerVoltage
    QuasiFermiPotential DisplacementCurrent eCurrent hCurrent TotalCurrent
    Charge OuterVoltage InnerVoltage QuasiFermiPotential DisplacementCurrent
    eCurrent hCurrent TotalCurrent Charge ]
}

Data {
      0.00000000000000E+00
      0.00000000000000E+00   0.00000000000000E+00   0.00000000000000E+00   0.00000000000000E+00   5.76131262661283E-19
      1.92642058915985E-34   5.76131262661283E-19   3.30732972250738E-16   0.00000000000000E+00   0.00000000000000E+00
      0.00000000000000E+00   0.00000000000000E+00   5.72193757962714E-19   3.24628694441041E-34   5.72193757962714E-19
      4.85172877199546E-16  -5.00000000000000E-01  -5.00000000000000E-01   0.00000000000000E+00   0.00000000000000E+00
      0.00000000000000E+00   0.00000000000000E+00   0.00000000000000E+00  -3.75405755507940E-16
      0.00000000000000E+00
      0.00000000000000E+00   0.00000000000000E+00   0.00000000000000E+00   0.00000000000000E+00   1.72506181569733E-18
     -1.99035070106222E-31   1.72506181569713E-18   3.30732971977842E-16   0.00000000000000E+00   0.00000000000000E+00
      0.00000000000000E+00   0.00000000000000E+00  -2.28892384326406E-18  -1.98695448372319E-31  -2.28892384326426E-18
      4.85172876925964E-16  -5.00000000000000E-01  -5.00000000000000E-01   0.00000000000000E+00   0.00000000000000E+00
      0.00000000000000E+00   0.00000000000000E+00   0.00000000000000E+00  -3.75405755623555E-16
      1.00000000000000E-03
      0.00000000000000E+00   0.00000000000000E+00   0.00000000000000E+00   0.00000000000000E+00  -1.77275469427487E-18
     -4.30495350749055E-22  -1.77318518962562E-18   3.30694444998279E-16   1.00000000000000E-03   1.00000000000000E-03
      0.00000000000000E+00   0.00000000000000E+00  -1.60215117389484E-18   8.60071018965792E-22  -1.60129110287588E-18
      4.85402773131090E-16  -5.00000000000000E-01  -5.00000000000000E-01   0.00000000000000E+00   0.00000000000000E+00
      0.00000000000000E+00   0.00000000000000E+00   0.00000000000000E+00  -3.75802100793196E-16
      2.17333333333333E-03
      0.00000000000000E+00   0.00000000000000E+00   0.00000000000000E+00   0.00000000000000E+00  -2.41865497182956E-18
     -9.37858725194019E-22  -2.41959283055476E-18   3.30649511531007E-16   2.17333333333333E-03   2.17333333333333E-03
      0.00000000000000E+00   0.00000000000000E+00  -2.06457087494302E-18   1.84563110908193E-21  -2.06272524383394E-18
      4.85672773326365E-16  -5.00000000000000E-01  -5.00000000000000E-01   0.00000000000000E+00   0.00000000000000E+00
      0.00000000000000E+00   0.00000000000000E+00   0.00000000000000E+00  -3.76264734226523E-16
      3.56568888888889E-03
      0.00000000000000E+00   0.00000000000000E+00   0.00000000000000E+00   0.00000000000000E+00   9.89654629741997E-19
     -1.54295972510195E-21   9.88111670016895E-19   3.30596569650885E-16   3.56568888888889E-03   3.56568888888889E-03
      0.00000000000000E+00   0.00000000000000E+00   3.22112725558266E-18   2.98271784555970E-21   3.22410997342822E-18
      4.85993529411278E-16  -5.00000000000000E-01  -5.00000000000000E-01   0.00000000000000E+00   0.00000000000000E+00
      0.00000000000000E+00   0.00000000000000E+00   0.00000000000000E+00  -3.76810358154939E-16
      5.21795081481481E-03
      0.00000000000000E+00   0.00000000000000E+00   0.00000000000000E+00   0.00000000000000E+00   1.46653108988299E-18
     -2.26508173709869E-21   1.46426600814589E-18   3.30534276783236E-16   5.21795081481481E-03   5.21795081481481E-03
      0.00000000000000E+00   0.00000000000000E+00   7.36785670689307E-18   4.28736885025021E-21   7.37214407574333E-18
      4.86374657637884E-16  -5.00000000000000E-01  -5.00000000000000E-01   0.00000000000000E+00   0.00000000000000E+00
      0.00000000000000E+00   0.00000000000000E+00   0.00000000000000E+00  -3.77453110729114E-16
      7.17863496691358E-03
      0.00000000000000E+00   0.00000000000000E+00   0.00000000000000E+00   0.00000000000000E+00  -1.49728273613964E-18
     -3.12739311195716E-21  -1.50041012925159E-18   3.30461100225677E-16   7.17863496691358E-03   7.17863496691358E-03
      0.00000000000000E+00   0.00000000000000E+00   1.26744689057786E-18   5.77427954478378E-21   1.27322117012264E-18
      4.86827624843769E-16  -5.00000000000000E-01  -5.00000000000000E-01   0.00000000000000E+00   0.00000000000000E+00
      0.00000000000000E+00   0.00000000000000E+00   0.00000000000000E+00  -3.78209231243357E-16
      9.50531349407078E-03
      0.00000000000000E+00   0.00000000000000E+00   0.00000000000000E+00   0.00000000000000E+00  -5.69536035380978E-18
     -4.15770205730943E-21  -5.69951805586709E-18   3.30375304507015E-16   9.50531349407078E-03   9.50531349407078E-03
      0.00000000000000E+00   0.00000000000000E+00   8.87062305865743E-18   7.45520999709745E-21   8.87807826865453E-18
      4.87366114339400E-16  -5.00000000000000E-01  -5.00000000000000E-01   0.00000000000000E+00   0.00000000000000E+00
      0.00000000000000E+00   0.00000000000000E+00   0.00000000000000E+00  -3.79097248288336E-16
      1.22663053462973E-02
      0.00000000000000E+00   0.00000000000000E+00   0.00000000000000E+00   0.00000000000000E+00  -3.60335346220982E-18
     -5.38929387163490E-21  -3.60874275608146E-18   3.30274945011453E-16   1.22663053462973E-02   1.22663053462973E-02
      0.00000000000000E+00   0.00000000000000E+00   1.08085789358646E-18   9.33682870037005E-21   1.09019472228683E-18
      4.88006467483607E-16  -5.00000000000000E-01  -5.00000000000000E-01   0.00000000000000E+00   0.00000000000000E+00
      0.00000000000000E+00   0.00000000000000E+00   0.00000000000000E+00  -3.80138125341518E-16
      1.55426823442728E-02
      0.00000000000000E+00   0.00000000000000E+00   0.00000000000000E+00   0.00000000000000E+00  -8.79788721766641E-18
     -6.86182235258675E-21  -8.80474904001899E-18   3.30157870407974E-16   1.55426823442728E-02   1.55426823442728E-02
      0.00000000000000E+00   0.00000000000000E+00   4.32737118403907E-18   1.14179291128518E-20   4.33878911315192E-18
      4.88768215846215E-16  -5.00000000000000E-01  -5.00000000000000E-01   0.00000000000000E+00   0.00000000000000E+00
      0.00000000000000E+00   0.00000000000000E+00   0.00000000000000E+00  -3.81355342195603E-16
      1.94306497152037E-02
      0.00000000000000E+00   0.00000000000000E+00   0.00000000000000E+00   0.00000000000000E+00  -5.18508837416568E-18
     -8.62218646429314E-21  -5.19371056062997E-18   3.30021736719569E-16   1.94306497152037E-02   1.94306497152037E-02
      0.00000000000000E+00   0.00000000000000E+00   3.92240312645483E-18   1.36860542391385E-20   3.93608918069396E-18
      4.89674721166967E-16  -5.00000000000000E-01  -5.00000000000000E-01   0.00000000000000E+00   0.00000000000000E+00
      0.00000000000000E+00   0.00000000000000E+00   0.00000000000000E+00  -3.82774886940656E-16
      2.40443709953751E-02
      0.00000000000000E+00   0.00000000000000E+00   0.00000000000000E+00   0.00000000000000E+00  -1.13853999447597E-17
     -1.07252159402168E-20  -1.13961251606999E-17   3.29864037569448E-16   2.40443709953751E-02   2.40443709953751E-02
      0.00000000000000E+00   0.00000000000000E+00   7.38073626282341E-18   1.61137761166638E-20   7.39685003894007E-18
      4.90753944222774E-16  -5.00000000000000E-01  -5.00000000000000E-01   0.00000000000000E+00   0.00000000000000E+00
      0.00000000000000E+00   0.00000000000000E+00   0.00000000000000E+00  -3.84425116341689E-16
      2.95193202478451E-02
      0.00000000000000E+00   0.00000000000000E+00   0.00000000000000E+00   0.00000000000000E+00  -1.08552891287141E-17
     -1.32339607088244E-20  -1.08685230894229E-17   3.29682149693401E-16   2.95193202478451E-02   2.95193202478451E-02
      0.00000000000000E+00   0.00000000000000E+00   4.51583309021237E-18   1.86551559643071E-20   4.53448824617668E-18
      4.92039360947788E-16  -5.00000000000000E-01  -5.00000000000000E-01   0.00000000000000E+00   0.00000000000000E+00
      0.00000000000000E+00   0.00000000000000E+00   0.00000000000000E+00  -3.86336485457335E-16
      3.60162600274429E-02
      0.00000000000000E+00   0.00000000000000E+00   0.00000000000000E+00   0.00000000000000E+00  -1.13589002845201E-17
     -1.62194818410400E-20  -1.13751197663611E-17   3.29473379718934E-16   3.60162600274429E-02   3.60162600274429E-02
      0.00000000000000E+00   0.00000000000000E+00   6.52390667311792E-18   2.12433380578332E-20   6.54515001117575E-18
      4.93571034377071E-16  -5.00000000000000E-01  -5.00000000000000E-01   0.00000000000000E+00   0.00000000000000E+00
      0.00000000000000E+00   0.00000000000000E+00   0.00000000000000E+00  -3.88541253679347E-16
      4.36393360355042E-02
      0.00000000000000E+00   0.00000000000000E+00   0.00000000000000E+00   0.00000000000000E+00  -1.13514587909394E-17
     -1.97202689516257E-20  -1.13711790598911E-17   3.29237618891517E-16   4.36393360355042E-02   4.36393360355042E-02
      0.00000000000000E+00   0.00000000000000E+00   8.23754591098560E-18   2.37651010940440E-20   8.26131101207965E-18
      4.95376288872526E-16  -5.00000000000000E-01  -5.00000000000000E-01   0.00000000000000E+00   0.00000000000000E+00
      0.00000000000000E+00   0.00000000000000E+00   0.00000000000000E+00  -3.91045335813635E-16
      5.26853862317371E-02
      0.00000000000000E+00   0.00000000000000E+00   0.00000000000000E+00   0.00000000000000E+00  -1.02235054225167E-17
     -2.38540289470255E-20  -1.02473594514637E-17   3.28969650416990E-16   5.26853862317371E-02   5.26853862317371E-02
      0.00000000000000E+00   0.00000000000000E+00   1.09898949513615E-17   2.61509360956963E-20   1.10160458874572E-17
      4.97528704582883E-16  -5.00000000000000E-01  -5.00000000000000E-01   0.00000000000000E+00   0.00000000000000E+00
      0.00000000000000E+00   0.00000000000000E+00   0.00000000000000E+00  -3.93909761238748E-16
      6.32994184619836E-02
      0.00000000000000E+00   0.00000000000000E+00   0.00000000000000E+00   0.00000000000000E+00  -1.46380862447365E-17
     -2.86598146874106E-20  -1.46667460594239E-17   3.28669650011053E-16   6.32994184619836E-02   6.32994184619836E-02
      0.00000000000000E+00   0.00000000000000E+00   1.71826200689193E-17   2.82742149907105E-20   1.72108942839100E-17
      5.00066297800967E-16  -5.00000000000000E-01  -5.00000000000000E-01   0.00000000000000E+00   0.00000000000000E+00
      0.00000000000000E+00   0.00000000000000E+00   0.00000000000000E+00  -3.97138431951851E-16
      7.57532162788061E-02
      0.00000000000000E+00   0.00000000000000E+00   0.00000000000000E+00   0.00000000000000E+00  -1.63907312669675E-17
     -3.42337356730904E-20  -1.64249650026405E-17   3.28334278784863E-16   7.57532162788061E-02   7.57532162788061E-02
      0.00000000000000E+00   0.00000000000000E+00   1.92627996649323E-17   3.00555686245953E-20   1.92928552335568E-17
      5.03057103382124E-16  -5.00000000000000E-01  -5.00000000000000E-01   0.00000000000000E+00   0.00000000000000E+00
      0.00000000000000E+00   0.00000000000000E+00   0.00000000000000E+00  -4.00771558656808E-16
      9.03656723838780E-02
      0.00000000000000E+00   0.00000000000000E+00   0.00000000000000E+00   0.00000000000000E+00  -2.07881861334579E-17
     -4.07151022579296E-20  -2.08289012357158E-17   3.27958601574574E-16   9.03656723838780E-02   9.03656723838780E-02
      0.00000000000000E+00   0.00000000000000E+00   2.32106489949327E-17   3.14482069119627E-20   2.32420972018447E-17
      5.06579633235811E-16  -5.00000000000000E-01  -5.00000000000000E-01   0.00000000000000E+00   0.00000000000000E+00
      0.00000000000000E+00   0.00000000000000E+00   0.00000000000000E+00  -4.04863446505542E-16
      1.07510954213829E-01
      0.00000000000000E+00   0.00000000000000E+00   0.00000000000000E+00   0.00000000000000E+00  -2.65053941799840E-17
     -4.83360666962796E-20  -2.65537302466803E-17   3.27535013530790E-16   1.07510954213829E-01   1.07510954213829E-01
      0.00000000000000E+00   0.00000000000000E+00   2.70136283543956E-17   3.24505021274240E-20   2.70460788565230E-17
      5.10723843341990E-16  -5.00000000000000E-01  -5.00000000000000E-01   0.00000000000000E+00   0.00000000000000E+00
      0.00000000000000E+00   0.00000000000000E+00   0.00000000000000E+00  -4.09491489077087E-16
      1.27628084894305E-01
      0.00000000000000E+00   0.00000000000000E+00   0.00000000000000E+00   0.00000000000000E+00  -3.05028062350057E-17
     -5.75020640402039E-20  -3.05603082990459E-17   3.27052135236373E-16   1.27628084894305E-01   1.27628084894305E-01
      0.00000000000000E+00   0.00000000000000E+00   3.13545856377787E-17   3.31077085776125E-20   3.13876933463563E-17
      5.15592399857536E-16  -5.00000000000000E-01  -5.00000000000000E-01   0.00000000000000E+00   0.00000000000000E+00
      0.00000000000000E+00   0.00000000000000E+00   0.00000000000000E+00  -4.14765629092479E-16
      1.51232184892730E-01
      0.00000000000000E+00   0.00000000000000E+00   0.00000000000000E+00   0.00000000000000E+00  -3.67962033851644E-17
     -6.89291061279267E-20  -3.68651324912923E-17   3.26493623950182E-16   1.51232184892730E-01   1.51232184892730E-01
      0.00000000000000E+00   0.00000000000000E+00   3.23190068519924E-17   3.34999563251525E-20   3.23525068083176E-17
      5.21302227649156E-16  -5.00000000000000E-01  -5.00000000000000E-01   0.00000000000000E+00   0.00000000000000E+00
      0.00000000000000E+00   0.00000000000000E+00   0.00000000000000E+00  -4.20838968605301E-16
      1.78927662224215E-01
      0.00000000000000E+00   0.00000000000000E+00   0.00000000000000E+00   0.00000000000000E+00  -4.26582026826832E-17
     -8.39360765881042E-20  -4.27421387592713E-17   3.25836086707565E-16   1.78927662224215E-01   1.78927662224215E-01
      0.00000000000000E+00   0.00000000000000E+00   4.54773016625924E-17   3.37186010216909E-20   4.55110202636141E-17
      5.27985612067920E-16  -5.00000000000000E-01  -5.00000000000000E-01   0.00000000000000E+00   0.00000000000000E+00
      0.00000000000000E+00   0.00000000000000E+00   0.00000000000000E+00  -4.27927051199547E-16
      2.11423688959824E-01
      0.00000000000000E+00   0.00000000000000E+00   0.00000000000000E+00   0.00000000000000E+00  -5.10518232796240E-17
     -1.05129856715767E-19  -5.11569531363398E-17   3.25045196477887E-16   2.11423688959824E-01   2.11423688959824E-01
      0.00000000000000E+00   0.00000000000000E+00   4.82755818639498E-17   3.38419177538480E-20   4.83094237817036E-17
      5.35790057434501E-16  -5.00000000000000E-01  -5.00000000000000E-01   0.00000000000000E+00   0.00000000000000E+00
      0.00000000000000E+00   0.00000000000000E+00   0.00000000000000E+00  -4.36344352052719E-16
      2.49552360329606E-01
      0.00000000000000E+00   0.00000000000000E+00   0.00000000000000E+00   0.00000000000000E+00  -6.35955591359055E-17
     -1.37619758526774E-19  -6.37331788944323E-17   3.24075110744307E-16   2.49552360329606E-01   2.49552360329606E-01
      0.00000000000000E+00   0.00000000000000E+00   7.20058130446883E-17   3.39204437425440E-20   7.20397334884309E-17
      5.44881438579934E-16  -5.00000000000000E-01  -5.00000000000000E-01   0.00000000000000E+00   0.00000000000000E+00
      0.00000000000000E+00   0.00000000000000E+00   0.00000000000000E+00  -4.46511749400790E-16
      2.93781619118552E-01
      0.00000000000000E+00   0.00000000000000E+00   0.00000000000000E+00   0.00000000000000E+00  -9.35645565470730E-17
     -1.89232819484978E-19  -9.37537893665580E-17   3.22899437791737E-16   2.93781619118552E-01   2.93781619118552E-01
      0.00000000000000E+00   0.00000000000000E+00   9.58244579092509E-17   3.39831513799583E-20   9.58584410606308E-17
      5.55342892192212E-16  -5.00000000000000E-01  -5.00000000000000E-01   0.00000000000000E+00   0.00000000000000E+00
      0.00000000000000E+00   0.00000000000000E+00   0.00000000000000E+00  -4.58657914205085E-16
      3.45087559313730E-01
      0.00000000000000E+00   0.00000000000000E+00   0.00000000000000E+00   0.00000000000000E+00  -1.35207806566946E-16
     -2.67814502132657E-19  -1.35475621069078E-16   3.21530848067111E-16   3.45087559313730E-01   3.45087559313730E-01
      0.00000000000000E+00   0.00000000000000E+00   1.36901804487375E-16   3.40537134970021E-20   1.36935858200872E-16
      5.67415040512456E-16  -5.00000000000000E-01  -5.00000000000000E-01   0.00000000000000E+00   0.00000000000000E+00
      0.00000000000000E+00   0.00000000000000E+00   0.00000000000000E+00  -4.72661122191945E-16
      4.04602449940137E-01
      0.00000000000000E+00   0.00000000000000E+00   0.00000000000000E+00   0.00000000000000E+00  -2.20228594239834E-16
     -3.66344865435110E-19  -2.20594939105269E-16   3.20067742454303E-16   4.04602449940137E-01   4.04602449940137E-01
      0.00000000000000E+00   0.00000000000000E+00   2.18374425896523E-16   3.41462413401472E-20   2.18408572137863E-16
      5.81433064064580E-16  -5.00000000000000E-01  -5.00000000000000E-01   0.00000000000000E+00   0.00000000000000E+00
      0.00000000000000E+00   0.00000000000000E+00   0.00000000000000E+00  -4.87592101325010E-16
      4.72846191191750E-01
      0.00000000000000E+00   0.00000000000000E+00   0.00000000000000E+00   0.00000000000000E+00  -3.57898648461383E-16
     -4.51786628570680E-19  -3.58350435089954E-16   3.18641543115298E-16   4.72846191191750E-01   4.72846191191750E-01
      0.00000000000000E+00   0.00000000000000E+00   3.53293770424251E-16   3.42673967057070E-20   3.53328037820957E-16
      5.97564556689588E-16  -5.00000000000000E-01  -5.00000000000000E-01   0.00000000000000E+00   0.00000000000000E+00
      0.00000000000000E+00   0.00000000000000E+00   0.00000000000000E+00  -5.02164931740546E-16
      5.51099014493599E-01
      0.00000000000000E+00   0.00000000000000E+00   0.00000000000000E+00   0.00000000000000E+00  -6.18874404922858E-16
     -5.01560903696352E-19  -6.19375965826555E-16   3.17242148940248E-16   5.51099014493599E-01   5.51099014493599E-01
      0.00000000000000E+00   0.00000000000000E+00   6.09246134992618E-16   3.44104887091915E-20   6.09280545481327E-16
      6.15978286799310E-16  -5.00000000000000E-01  -5.00000000000000E-01   0.00000000000000E+00   0.00000000000000E+00
      0.00000000000000E+00   0.00000000000000E+00   0.00000000000000E+00  -5.16377725372054E-16
      6.40828918546387E-01
      0.00000000000000E+00   0.00000000000000E+00   0.00000000000000E+00   0.00000000000000E+00  -1.15929997221194E-15
     -5.42431417338126E-19  -1.15984240362927E-15   3.15703510758927E-16   6.40828918546387E-01   6.40828918546387E-01
      0.00000000000000E+00   0.00000000000000E+00   1.16076185357960E-15   3.45744666276229E-20   1.16079642804623E-15
      6.36608256905697E-16  -5.00000000000000E-01  -5.00000000000000E-01   0.00000000000000E+00   0.00000000000000E+00
      0.00000000000000E+00   0.00000000000000E+00   0.00000000000000E+00  -5.31633988938144E-16
      7.44915607247620E-01
      0.00000000000000E+00   0.00000000000000E+00   0.00000000000000E+00   0.00000000000000E+00  -2.40844887412931E-15
     -5.89765231428918E-19  -2.40903863936074E-15   3.13937613402545E-16   7.44915607247620E-01   7.44915607247620E-01
      0.00000000000000E+00   0.00000000000000E+00   2.41292653201998E-15   3.47652271416326E-20   2.41296129724712E-15
      6.59367387894123E-16  -5.00000000000000E-01  -5.00000000000000E-01   0.00000000000000E+00   0.00000000000000E+00
      0.00000000000000E+00   0.00000000000000E+00   0.00000000000000E+00  -5.48412409834390E-16
      8.64268343625034E-01
      0.00000000000000E+00   0.00000000000000E+00   0.00000000000000E+00   0.00000000000000E+00  -5.28345453597723E-15
     -6.09181683158148E-19  -5.28406371766039E-15   3.12076709100079E-16   8.64268343625034E-01   8.64268343625034E-01
      0.00000000000000E+00   0.00000000000000E+00   5.27702761524288E-15   3.49897023036048E-20   5.27706260494519E-15
      6.82669821095400E-16  -5.00000000000000E-01  -5.00000000000000E-01   0.00000000000000E+00   0.00000000000000E+00
      0.00000000000000E+00   0.00000000000000E+00   0.00000000000000E+00  -5.64429644782443E-16
      9.99534778186104E-01
      0.00000000000000E+00   0.00000000000000E+00   0.00000000000000E+00   0.00000000000000E+00  -1.18139027020641E-14
     -5.93008021679936E-19  -1.18144957100858E-14   3.10180078713619E-16   9.99534778186104E-01   9.99534778186104E-01
      0.00000000000000E+00   0.00000000000000E+00   1.18139513730987E-14   3.52534644385906E-20   1.18139866265631E-14
      7.04237894966106E-16  -5.00000000000000E-01  -5.00000000000000E-01   0.00000000000000E+00   0.00000000000000E+00
      0.00000000000000E+00   0.00000000000000E+00   0.00000000000000E+00  -5.77744584854112E-16
      1.00000000000000E+00
      0.00000000000000E+00   0.00000000000000E+00   0.00000000000000E+00   0.00000000000000E+00  -1.18456548970685E-14
     -5.92935870682325E-19  -1.18462478329392E-14   3.10173724227771E-16   1.00000000000000E+00   1.00000000000000E+00
      0.00000000000000E+00   0.00000000000000E+00   1.18367192743194E-14   3.52543774541564E-20   1.18367545286968E-14
      7.04306095980828E-16  -5.00000000000000E-01  -5.00000000000000E-01   0.00000000000000E+00   0.00000000000000E+00
      0.00000000000000E+00   0.00000000000000E+00   0.00000000000000E+00  -5.77785387607159E-16
      0.00000000000000E+00
      0.00000000000000E+00   0.00000000000000E+00   0.00000000000000E+00   0.00000000000000E+00  -1.18396364574617E-14
     -5.92935431001867E-19  -1.18402293928927E-14   3.10173725558890E-16   1.00000000000000E+00   1.00000000000000E+00
      0.00000000000000E+00   0.00000000000000E+00   1.18487839551123E-14   3.52543774685871E-20   1.18488192094898E-14
      7.04306096714487E-16  -5.00000000000000E-01  -5.00000000000000E-01   0.00000000000000E+00   0.00000000000000E+00
      0.00000000000000E+00   0.00000000000000E+00   0.00000000000000E+00  -5.77785375153959E-16
      1.00000000000000E-03
      0.00000000000000E+00   0.00000000000000E+00   0.00000000000000E+00   0.00000000000000E+00  -1.19170308157511E-14
     -5.82450781449214E-19  -1.19176132665326E-14   3.10088718644735E-16   1.00000000000000E+00   1.00000000000000E+00
      0.00000000000000E+00   0.00000000000000E+00   1.19180342984794E-14   3.52532187222863E-20   1.19180695516981E-14
      7.04140103106076E-16  -4.98000000000000E-01  -4.98000000000000E-01   0.00000000000000E+00   0.00000000000000E+00
      0.00000000000000E+00   0.00000000000000E+00   0.00000000000000E+00  -5.75817880139522E-16
      2.14666666666667E-03
      0.00000000000000E+00   0.00000000000000E+00   0.00000000000000E+00   0.00000000000000E+00  -1.20065266039284E-14
     -5.70595630914846E-19  -1.20070971995593E-14   3.09990621996315E-16   1.00000000000000E+00   1.00000000000000E+00
      0.00000000000000E+00   0.00000000000000E+00   1.20085324653188E-14   3.52518808348033E-20   1.20085677171997E-14
      7.03948803095161E-16  -4.95706666666667E-01  -4.95706666666667E-01   0.00000000000000E+00   0.00000000000000E+00
      0.00000000000000E+00   0.00000000000000E+00   0.00000000000000E+00  -5.73568245533799E-16
      3.50737777777778E-03
      0.00000000000000E+00   0.00000000000000E+00   0.00000000000000E+00   0.00000000000000E+00  -1.21041214300793E-14
     -5.56769729111036E-19  -1.21046781998084E-14   3.09873302519878E-16   1.00000000000000E+00   1.00000000000000E+00
      0.00000000000000E+00   0.00000000000000E+00   1.21054900168158E-14   3.52502798394671E-20   1.21055252670956E-14
      7.03720411831154E-16  -4.92985244444444E-01  -4.92985244444444E-01   0.00000000000000E+00   0.00000000000000E+00
      0.00000000000000E+00   0.00000000000000E+00   0.00000000000000E+00  -5.70908127519420E-16
      5.10394548148148E-03
      0.00000000000000E+00   0.00000000000000E+00   0.00000000000000E+00   0.00000000000000E+00  -1.22285841317359E-14
     -5.40879665557275E-19  -1.22291250114015E-14   3.09734364850852E-16   1.00000000000000E+00   1.00000000000000E+00
      0.00000000000000E+00   0.00000000000000E+00   1.22384141242087E-14   3.52483824755637E-20   1.22384493725912E-14
      7.03450471684777E-16  -4.89792109037037E-01  -4.89792109037037E-01   0.00000000000000E+00   0.00000000000000E+00
      0.00000000000000E+00   0.00000000000000E+00   0.00000000000000E+00  -5.67800316250661E-16
      6.97725158716049E-03
      0.00000000000000E+00   0.00000000000000E+00   0.00000000000000E+00   0.00000000000000E+00  -1.23834899146293E-14
     -5.22709740853193E-19  -1.23840126243702E-14   3.09569470103045E-16   1.00000000000000E+00   1.00000000000000E+00
      0.00000000000000E+00   0.00000000000000E+00   1.23945344988490E-14   3.52461289368150E-20   1.23945697449779E-14
      7.03130924777855E-16  -4.86045496825679E-01  -4.86045496825679E-01   0.00000000000000E+00   0.00000000000000E+00
      0.00000000000000E+00   0.00000000000000E+00   0.00000000000000E+00  -5.64173436750649E-16
      9.17526408449054E-03
      0.00000000000000E+00   0.00000000000000E+00   0.00000000000000E+00   0.00000000000000E+00  -1.25800846042745E-14
     -5.02058838724291E-19  -1.25805866631132E-14   3.09373263053880E-16   1.00000000000000E+00   1.00000000000000E+00
      0.00000000000000E+00   0.00000000000000E+00   1.25725918456176E-14   3.52434454363041E-20   1.25726270890631E-14
      7.02751939985599E-16  -4.81649471831019E-01  -4.81649471831019E-01   0.00000000000000E+00   0.00000000000000E+00
      0.00000000000000E+00   0.00000000000000E+00   0.00000000000000E+00  -5.59946523700603E-16
      1.17542654146911E-02
      0.00000000000000E+00   0.00000000000000E+00   0.00000000000000E+00   0.00000000000000E+00  -1.28087274741241E-14
     -4.78768387319746E-19  -1.28092062425115E-14   3.09139040488243E-16   1.00000000000000E+00   1.00000000000000E+00
      0.00000000000000E+00   0.00000000000000E+00   1.28122951343021E-14   3.52402399310334E-20   1.28123303745420E-14
      7.02301418274515E-16  -4.76491469170618E-01  -4.76491469170618E-01   0.00000000000000E+00   0.00000000000000E+00
      0.00000000000000E+00   0.00000000000000E+00   0.00000000000000E+00  -5.55028908099238E-16
      1.47802936421265E-02
      0.00000000000000E+00   0.00000000000000E+00   0.00000000000000E+00   0.00000000000000E+00  -1.30997677447643E-14
     -4.52754784084102E-19  -1.31002204995484E-14   3.08858306002516E-16   1.00000000000000E+00   1.00000000000000E+00
      0.00000000000000E+00   0.00000000000000E+00   1.30979581377957E-14   3.52363966058997E-20   1.30979933741923E-14
      7.01764338501856E-16  -4.70439412715747E-01  -4.70439412715747E-01   0.00000000000000E+00   0.00000000000000E+00
      0.00000000000000E+00   0.00000000000000E+00   0.00000000000000E+00  -5.49320581018972E-16
      1.83308334289839E-02
      0.00000000000000E+00   0.00000000000000E+00   0.00000000000000E+00   0.00000000000000E+00  -1.34714556705859E-14
     -4.24055854083729E-19  -1.34718797264400E-14   3.08520120106269E-16   1.00000000000000E+00   1.00000000000000E+00
      0.00000000000000E+00   0.00000000000000E+00   1.34807554692316E-14   3.52317683576610E-20   1.34807907010000E-14
      7.01121861494784E-16  -4.63338333142032E-01  -4.63338333142032E-01   0.00000000000000E+00   0.00000000000000E+00
      0.00000000000000E+00   0.00000000000000E+00   0.00000000000000E+00  -5.42713696475164E-16
      2.24494595817386E-02
      0.00000000000000E+00   0.00000000000000E+00   0.00000000000000E+00   0.00000000000000E+00  -1.39444994135348E-14
     -3.93209323903537E-19  -1.39448926228587E-14   3.08114970239049E-16   1.00000000000000E+00   1.00000000000000E+00
      0.00000000000000E+00   0.00000000000000E+00   1.39545342838420E-14   3.52262322698577E-20   1.39545695100742E-14
      7.00359021098056E-16  -4.55101080836523E-01  -4.55101080836523E-01   0.00000000000000E+00   0.00000000000000E+00
      0.00000000000000E+00   0.00000000000000E+00   0.00000000000000E+00  -5.35180788644634E-16
      2.72270659189340E-02
      0.00000000000000E+00   0.00000000000000E+00   0.00000000000000E+00   0.00000000000000E+00  -1.45637987565616E-14
     -3.60641404255886E-19  -1.45641593979658E-14   3.07626188669664E-16   1.00000000000000E+00   1.00000000000000E+00
      0.00000000000000E+00   0.00000000000000E+00   1.45616626605950E-14   3.52195771317755E-20   1.45616978801721E-14
      6.99449138813851E-16  -4.45545868162132E-01  -4.45545868162132E-01   0.00000000000000E+00   0.00000000000000E+00
      0.00000000000000E+00   0.00000000000000E+00   0.00000000000000E+00  -5.26630594995128E-16
      3.27690892700807E-02
      0.00000000000000E+00   0.00000000000000E+00   0.00000000000000E+00   0.00000000000000E+00  -1.53934903179954E-14
     -3.26985678539429E-19  -1.53938173036739E-14   3.07031668906925E-16   1.00000000000000E+00   1.00000000000000E+00
      0.00000000000000E+00   0.00000000000000E+00   1.53881133053613E-14   3.52115353768456E-20   1.53881485168967E-14
      6.98358146616215E-16  -4.34461821459839E-01  -4.34461821459839E-01   0.00000000000000E+00   0.00000000000000E+00
      0.00000000000000E+00   0.00000000000000E+00   0.00000000000000E+00  -5.16980515025476E-16
      3.91978363574109E-02
      0.00000000000000E+00   0.00000000000000E+00   0.00000000000000E+00   0.00000000000000E+00  -1.65202639032829E-14
     -2.93081612708505E-19  -1.65205569848956E-14   3.06301687285091E-16   1.00000000000000E+00   1.00000000000000E+00