DF-ISE text

Info {
  version   = 1.0
  type      = xyplot
  datasets  = [
    "time"
    "S OuterVoltage" "S InnerVoltage" "S QuasiFermiPotential" "S DisplacementCurrent" "S eCurrent"
    "S hCurrent" "S TotalCurrent" "S Charge" "D OuterVoltage" "D InnerVoltage"
    "D QuasiFermiPotential" "D DisplacementCurrent" "D eCurrent" "D hCurrent" "D TotalCurrent"
    "D Charge" "G OuterVoltage" "G InnerVoltage" "G QuasiFermiPotential" "G DisplacementCurrent"
    "G eCurrent" "G hCurrent" "G TotalCurrent" "G Charge" ]
  functions = [
    Time
    OuterVoltage InnerVoltage QuasiFermiPotential DisplacementCurrent eCurrent
    hCurrent TotalCurrent Charge OuterVoltage InnerVoltage
    QuasiFermiPotential DisplacementCurrent eCurrent hCurrent TotalCurrent
    Charge OuterVoltage InnerVoltage QuasiFermiPotential DisplacementCurrent
    eCurrent hCurrent TotalCurrent Charge ]
}

Data {
      0.00000000000000E+00
      0.00000000000000E+00   0.00000000000000E+00   0.00000000000000E+00   0.00000000000000E+00   3.83453810899655E-27
     -1.76242689473527E-33   3.83453634656965E-27   6.44330286105652E-16   0.00000000000000E+00   0.00000000000000E+00
      0.00000000000000E+00   0.00000000000000E+00   7.82457203353823E-20  -1.74609734421783E-33   7.82457203353805E-20
      6.98418723348925E-16  -5.00000000000000E-01  -5.00000000000000E-01   0.00000000000000E+00   0.00000000000000E+00
      0.00000000000000E+00   0.00000000000000E+00   0.00000000000000E+00  -2.73097248017909E-16
      0.00000000000000E+00
      0.00000000000000E+00   0.00000000000000E+00   0.00000000000000E+00   0.00000000000000E+00   1.55761193438346E-19
      1.49425179801158E-31   1.55761193438495E-19   6.44330285854310E-16   0.00000000000000E+00   0.00000000000000E+00
      0.00000000000000E+00   0.00000000000000E+00   3.12982842896836E-19   1.49766754748282E-31   3.12982842896986E-19
      6.98418723090351E-16  -5.00000000000000E-01  -5.00000000000000E-01   0.00000000000000E+00   0.00000000000000E+00
      0.00000000000000E+00   0.00000000000000E+00   0.00000000000000E+00  -2.73097248018188E-16
      1.00000000000000E-03
      0.00000000000000E+00   0.00000000000000E+00   0.00000000000000E+00   0.00000000000000E+00  -4.90405847880781E-18
     -2.38666310090868E-21  -4.90644514190872E-18   6.44006520747573E-16   1.00000000000000E-03   1.00000000000000E-03
      0.00000000000000E+00   0.00000000000000E+00   5.02898572109499E-18   8.33772685220710E-22   5.02981949378021E-18
      6.98573301697843E-16  -5.00000000000000E-01  -5.00000000000000E-01   0.00000000000000E+00   0.00000000000000E+00
      0.00000000000000E+00   0.00000000000000E+00   0.00000000000000E+00  -2.73814586545141E-16
      2.17333333333333E-03
      0.00000000000000E+00   0.00000000000000E+00   0.00000000000000E+00   0.00000000000000E+00  -1.15058499321216E-17
     -5.25802607918416E-21  -1.15111079582007E-17   6.43628525088958E-16   2.17333333333333E-03   2.17333333333333E-03
      0.00000000000000E+00   0.00000000000000E+00   1.19547461464297E-17   1.81688638560022E-21   1.19565630328153E-17
      6.98756801510071E-16  -5.00000000000000E-01  -5.00000000000000E-01   0.00000000000000E+00   0.00000000000000E+00
      0.00000000000000E+00   0.00000000000000E+00   0.00000000000000E+00  -2.74652212994794E-16
      3.56568888888889E-03
      0.00000000000000E+00   0.00000000000000E+00   0.00000000000000E+00   0.00000000000000E+00  -1.92453045221217E-17
     -8.76634494957634E-21  -1.92540708670713E-17   6.43182665926508E-16   3.56568888888889E-03   3.56568888888889E-03
      0.00000000000000E+00   0.00000000000000E+00   1.88708506441933E-17   2.98994170962366E-21   1.88738405859030E-17
      6.98977574769568E-16  -5.00000000000000E-01  -5.00000000000000E-01   0.00000000000000E+00   0.00000000000000E+00
      0.00000000000000E+00   0.00000000000000E+00   0.00000000000000E+00  -2.75640418914495E-16
      5.21795081481481E-03
      0.00000000000000E+00   0.00000000000000E+00   0.00000000000000E+00   0.00000000000000E+00  -2.85334270840817E-17
     -1.30741264133161E-20  -2.85465012104950E-17   6.42657458103227E-16   5.21795081481481E-03   5.21795081481481E-03
      0.00000000000000E+00   0.00000000000000E+00   2.81313040579468E-17   4.39045162439373E-21   2.81356945095712E-17
      6.99243877238149E-16  -5.00000000000000E-01  -5.00000000000000E-01   0.00000000000000E+00   0.00000000000000E+00
      0.00000000000000E+00   0.00000000000000E+00   0.00000000000000E+00  -2.76804784169417E-16
      7.17863496691358E-03
      0.00000000000000E+00   0.00000000000000E+00   0.00000000000000E+00   0.00000000000000E+00  -3.87988119446044E-17
     -1.83934369970547E-20  -3.88172053816015E-17   6.42039809335705E-16   7.17863496691358E-03   7.17863496691358E-03
      0.00000000000000E+00   0.00000000000000E+00   3.90892446246450E-17   6.06334545657064E-21   3.90953079701015E-17
      6.99566077748940E-16  -5.00000000000000E-01  -5.00000000000000E-01   0.00000000000000E+00   0.00000000000000E+00
      0.00000000000000E+00   0.00000000000000E+00   0.00000000000000E+00  -2.78174520140514E-16
      9.50531349407078E-03
      0.00000000000000E+00   0.00000000000000E+00   0.00000000000000E+00   0.00000000000000E+00  -5.22062108402659E-17
     -2.50037337811946E-20  -5.22312145740471E-17   6.41314974406906E-16   9.50531349407078E-03   9.50531349407078E-03
      0.00000000000000E+00   0.00000000000000E+00   5.18929130625959E-17   8.06219744102672E-21   5.19009752600370E-17
      6.99957312872617E-16  -5.00000000000000E-01  -5.00000000000000E-01   0.00000000000000E+00   0.00000000000000E+00
      0.00000000000000E+00   0.00000000000000E+00   0.00000000000000E+00  -2.79782608653026E-16
      1.22663053462973E-02
      0.00000000000000E+00   0.00000000000000E+00   0.00000000000000E+00   0.00000000000000E+00  -6.76504932628585E-17
     -3.32767434066347E-20  -6.76837700062651E-17   6.40466625871399E-16   1.22663053462973E-02   1.22663053462973E-02
      0.00000000000000E+00   0.00000000000000E+00   6.76432326755503E-17   1.04503654432911E-20   6.76536830409936E-17
      7.00434385347105E-16  -5.00000000000000E-01  -5.00000000000000E-01   0.00000000000000E+00   0.00000000000000E+00
      0.00000000000000E+00   0.00000000000000E+00   0.00000000000000E+00  -2.81665703131691E-16
      1.55426823442728E-02
      0.00000000000000E+00   0.00000000000000E+00   0.00000000000000E+00   0.00000000000000E+00  -8.72960817170995E-17
     -4.37109991409725E-20  -8.73397927162405E-17   6.39477127836824E-16   1.55426823442728E-02   1.55426823442728E-02
      0.00000000000000E+00   0.00000000000000E+00   8.66386055946972E-17   1.33017086594480E-20   8.66519073033567E-17
      7.01019010800179E-16  -5.00000000000000E-01  -5.00000000000000E-01   0.00000000000000E+00   0.00000000000000E+00
      0.00000000000000E+00   0.00000000000000E+00   0.00000000000000E+00  -2.83863611795016E-16
      1.94306497152037E-02
      0.00000000000000E+00   0.00000000000000E+00   0.00000000000000E+00   0.00000000000000E+00  -1.10247272498382E-16
     -5.69790769846061E-20  -1.10304251575367E-16   6.38328145407994E-16   1.94306497152037E-02   1.94306497152037E-02
      0.00000000000000E+00   0.00000000000000E+00   1.10016933416264E-16   1.67002118756028E-20   1.10033633628140E-16
      7.01739561068835E-16  -5.00000000000000E-01  -5.00000000000000E-01   0.00000000000000E+00   0.00000000000000E+00
      0.00000000000000E+00   0.00000000000000E+00   0.00000000000000E+00  -2.86418086982456E-16
      2.40443709953751E-02
      0.00000000000000E+00   0.00000000000000E+00   0.00000000000000E+00   0.00000000000000E+00  -1.38157584202556E-16
     -7.39900151727922E-20  -1.38231574217729E-16   6.37001795013601E-16   2.40443709953751E-02   2.40443709953751E-02
      0.00000000000000E+00   0.00000000000000E+00   1.38195463304657E-16   2.07372898870855E-20   1.38216200594544E-16
      7.02633517641959E-16  -5.00000000000000E-01  -5.00000000000000E-01   0.00000000000000E+00   0.00000000000000E+00
      0.00000000000000E+00   0.00000000000000E+00   0.00000000000000E+00  -2.89370493900526E-16
      2.95193202478451E-02
      0.00000000000000E+00   0.00000000000000E+00   0.00000000000000E+00   0.00000000000000E+00  -1.73239314895689E-16
     -9.59659775327132E-20  -1.73335280873222E-16   6.35482637308397E-16   2.95193202478451E-02   2.95193202478451E-02
      0.00000000000000E+00   0.00000000000000E+00   1.70520987537553E-16   2.55046208219066E-20   1.70546492158375E-16
      7.03750927990442E-16  -5.00000000000000E-01  -5.00000000000000E-01   0.00000000000000E+00   0.00000000000000E+00
      0.00000000000000E+00   0.00000000000000E+00   0.00000000000000E+00  -2.92757732485224E-16
      3.60162600274429E-02
      0.00000000000000E+00   0.00000000000000E+00   0.00000000000000E+00   0.00000000000000E+00  -2.16545248942281E-16
     -1.24521279684430E-19  -2.16669770221966E-16   6.33760939660001E-16   3.60162600274429E-02   3.60162600274429E-02
      0.00000000000000E+00   0.00000000000000E+00   2.08878767490583E-16   3.10790787176066E-20   2.08909846569301E-16
      7.05159247532777E-16  -5.00000000000000E-01  -5.00000000000000E-01   0.00000000000000E+00   0.00000000000000E+00
      0.00000000000000E+00   0.00000000000000E+00   0.00000000000000E+00  -2.96605527971800E-16
      4.37259618992322E-02
      0.00000000000000E+00   0.00000000000000E+00   0.00000000000000E+00   0.00000000000000E+00  -2.67488969507291E-16
     -1.61704161683348E-19  -2.67650673668975E-16   6.31837743776830E-16   4.37259618992322E-02   4.37259618992322E-02
      0.00000000000000E+00   0.00000000000000E+00   2.55162362883021E-16   3.74949580516490E-20   2.55199857841073E-16
      7.06949991582419E-16  -5.00000000000000E-01  -5.00000000000000E-01   0.00000000000000E+00   0.00000000000000E+00
      0.00000000000000E+00   0.00000000000000E+00   0.00000000000000E+00  -3.00917985446046E-16
      5.28748081204222E-02
      0.00000000000000E+00   0.00000000000000E+00   0.00000000000000E+00   0.00000000000000E+00  -3.47991741961599E-16
     -2.09901429519247E-19  -3.48201643391119E-16   6.29732255055700E-16   5.28748081204222E-02   5.28748081204222E-02
      0.00000000000000E+00   0.00000000000000E+00   2.91344227105749E-16   4.46986543979540E-20   2.91388925760147E-16
      7.09247483544875E-16  -5.00000000000000E-01  -5.00000000000000E-01   0.00000000000000E+00   0.00000000000000E+00
      0.00000000000000E+00   0.00000000000000E+00   0.00000000000000E+00  -3.05662353035651E-16
      6.37314389695677E-02
      0.00000000000000E+00   0.00000000000000E+00   0.00000000000000E+00   0.00000000000000E+00  -3.82859402341810E-16
     -2.71401886808228E-19  -3.83130804228618E-16   6.27491551693920E-16   6.37314389695677E-02   6.37314389695677E-02
      0.00000000000000E+00   0.00000000000000E+00   3.82806364806616E-16   5.24859082388899E-20   3.82858850714855E-16
      7.12219273519146E-16  -5.00000000000000E-01  -5.00000000000000E-01   0.00000000000000E+00   0.00000000000000E+00
      0.00000000000000E+00   0.00000000000000E+00   0.00000000000000E+00  -3.10749032642296E-16
      7.64698858325651E-02
      0.00000000000000E+00   0.00000000000000E+00   0.00000000000000E+00   0.00000000000000E+00  -4.52729529747465E-16
     -3.46459564195613E-19  -4.53075989311661E-16   6.25224266763775E-16   7.64698858325651E-02   7.64698858325651E-02
      0.00000000000000E+00   0.00000000000000E+00   4.53064402769464E-16   6.03576129337030E-20   4.53124760382398E-16
      7.16040226839689E-16  -5.00000000000000E-01  -5.00000000000000E-01   0.00000000000000E+00   0.00000000000000E+00
      0.00000000000000E+00   0.00000000000000E+00   0.00000000000000E+00  -3.15956316554062E-16
      9.14163301518153E-02
      0.00000000000000E+00   0.00000000000000E+00   0.00000000000000E+00   0.00000000000000E+00  -5.25490180345187E-16
     -4.32976510492187E-19  -5.25923156855679E-16   6.23049696782682E-16   9.14163301518153E-02   9.14163301518153E-02
      0.00000000000000E+00   0.00000000000000E+00   5.25585617945732E-16   6.77083826977795E-20   5.25653326328430E-16
      7.20954091727809E-16  -5.00000000000000E-01  -5.00000000000000E-01   0.00000000000000E+00   0.00000000000000E+00
      0.00000000000000E+00   0.00000000000000E+00   0.00000000000000E+00  -3.21046140792468E-16
      1.08953491486402E-01
      0.00000000000000E+00   0.00000000000000E+00   0.00000000000000E+00   0.00000000000000E+00  -5.94741354568355E-16
     -5.24466788001455E-19  -5.95265821356356E-16   6.21108791792190E-16   1.08953491486402E-01   1.08953491486402E-01
      0.00000000000000E+00   0.00000000000000E+00   5.94618624653676E-16   7.38642664497946E-20   5.94692488920126E-16
      7.27229019872837E-16  -5.00000000000000E-01  -5.00000000000000E-01   0.00000000000000E+00   0.00000000000000E+00
      0.00000000000000E+00   0.00000000000000E+00   0.00000000000000E+00  -3.25737580555274E-16
      1.29530427452318E-01
      0.00000000000000E+00   0.00000000000000E+00   0.00000000000000E+00   0.00000000000000E+00  -6.52931107226824E-16
     -6.10706880683393E-19  -6.53541814107507E-16   6.19525627146935E-16   1.29530427452318E-01   1.29530427452318E-01
      0.00000000000000E+00   0.00000000000000E+00   6.53722124402631E-16   7.83420207620351E-20   6.53800466423393E-16
      7.35110637034914E-16  -5.00000000000000E-01  -5.00000000000000E-01   0.00000000000000E+00   0.00000000000000E+00
      0.00000000000000E+00   0.00000000000000E+00   0.00000000000000E+00  -3.29787440178034E-16
      1.53674032318992E-01
      0.00000000000000E+00   0.00000000000000E+00   0.00000000000000E+00   0.00000000000000E+00  -6.98672632250688E-16
     -6.82049083022395E-19  -6.99354681333711E-16   6.18355504639391E-16   1.53674032318992E-01   1.53674032318992E-01
      0.00000000000000E+00   0.00000000000000E+00   6.98892812513631E-16   8.10996361475084E-20   6.98973912149779E-16
      7.44757329223265E-16  -5.00000000000000E-01  -5.00000000000000E-01   0.00000000000000E+00   0.00000000000000E+00
      0.00000000000000E+00   0.00000000000000E+00   0.00000000000000E+00  -3.33098193370487E-16
      1.82002528695889E-01
      0.00000000000000E+00   0.00000000000000E+00   0.00000000000000E+00   0.00000000000000E+00  -7.30390026312587E-16
     -7.34715382119074E-19  -7.31124741694706E-16   6.17558404268572E-16   1.82002528695889E-01   1.82002528695889E-01
      0.00000000000000E+00   0.00000000000000E+00   7.31120996393228E-16   8.25314407017758E-20   7.31203527833929E-16
      7.56192398423118E-16  -5.00000000000000E-01  -5.00000000000000E-01   0.00000000000000E+00   0.00000000000000E+00
      0.00000000000000E+00   0.00000000000000E+00   0.00000000000000E+00  -3.35772383982099E-16
      2.15241297778115E-01
      0.00000000000000E+00   0.00000000000000E+00   0.00000000000000E+00   0.00000000000000E+00  -7.52137667482702E-16
     -7.71789279502965E-19  -7.52909456762205E-16   6.17026919274559E-16   2.15241297778115E-01   2.15241297778115E-01
      0.00000000000000E+00   0.00000000000000E+00   7.52527370840386E-16   8.31869303285110E-20   7.52610557770715E-16
      7.69300889006027E-16  -5.00000000000000E-01  -5.00000000000000E-01   0.00000000000000E+00   0.00000000000000E+00
      0.00000000000000E+00   0.00000000000000E+00   0.00000000000000E+00  -3.38052731060361E-16
      2.54241453501261E-01
      0.00000000000000E+00   0.00000000000000E+00   0.00000000000000E+00   0.00000000000000E+00  -7.67203884937797E-16
     -7.98996495329552E-19  -7.68002881433126E-16   6.16651061377242E-16   2.54241453501261E-01   2.54241453501261E-01
      0.00000000000000E+00   0.00000000000000E+00   7.68255088881376E-16   8.34934567177878E-20   7.68338582338094E-16
      7.83878589307975E-16  -5.00000000000000E-01  -5.00000000000000E-01   0.00000000000000E+00   0.00000000000000E+00
      0.00000000000000E+00   0.00000000000000E+00   0.00000000000000E+00  -3.40184073161788E-16
      2.99481634140110E-01
      0.00000000000000E+00   0.00000000000000E+00   0.00000000000000E+00   0.00000000000000E+00  -7.78997287912882E-16
     -8.19403052697611E-19  -7.79816690965579E-16   6.16376532747272E-16   2.99481634140110E-01   2.99481634140110E-01
      0.00000000000000E+00   0.00000000000000E+00   7.79963309515303E-16   8.36776965776370E-20   7.80046987211881E-16
      7.99584676525252E-16  -5.00000000000000E-01  -5.00000000000000E-01   0.00000000000000E+00   0.00000000000000E+00
      0.00000000000000E+00   0.00000000000000E+00   0.00000000000000E+00  -3.42268430219750E-16
      3.51960243681175E-01
      0.00000000000000E+00   0.00000000000000E+00   0.00000000000000E+00   0.00000000000000E+00  -7.86725875074425E-16
     -8.33567569429273E-19  -7.87559442643854E-16   6.16189526944763E-16   3.51960243681175E-01   3.51960243681175E-01
      0.00000000000000E+00   0.00000000000000E+00   7.86831380961428E-16   8.38322550156643E-20   7.86915213216443E-16
      8.16429874768153E-16  -5.00000000000000E-01  -5.00000000000000E-01   0.00000000000000E+00   0.00000000000000E+00
      0.00000000000000E+00   0.00000000000000E+00   0.00000000000000E+00  -3.44314995627768E-16
      4.12835430748810E-01
      0.00000000000000E+00   0.00000000000000E+00   0.00000000000000E+00   0.00000000000000E+00  -7.91548435592690E-16
     -8.42713124489784E-19  -7.92391148717180E-16   6.16070275227425E-16   4.12835430748810E-01   4.12835430748810E-01
      0.00000000000000E+00   0.00000000000000E+00   7.92000885893912E-16   8.39884817000152E-20   7.92084874375612E-16
      8.34597701136793E-16  -5.00000000000000E-01  -5.00000000000000E-01   0.00000000000000E+00   0.00000000000000E+00
      0.00000000000000E+00   0.00000000000000E+00   0.00000000000000E+00  -3.46310315875069E-16
      4.83450647747267E-01
      0.00000000000000E+00   0.00000000000000E+00   0.00000000000000E+00   0.00000000000000E+00  -7.95300450119133E-16
     -8.49049241931902E-19  -7.96149499361065E-16   6.15988324130540E-16   4.83450647747267E-01   4.83450647747267E-01
      0.00000000000000E+00   0.00000000000000E+00   7.96304707750989E-16   8.41572310147675E-20   7.96388864982004E-16
      8.54376390217325E-16  -5.00000000000000E-01  -5.00000000000000E-01   0.00000000000000E+00   0.00000000000000E+00
      0.00000000000000E+00   0.00000000000000E+00   0.00000000000000E+00  -3.48262964697962E-16
      5.65364299465477E-01
      0.00000000000000E+00   0.00000000000000E+00   0.00000000000000E+00   0.00000000000000E+00  -7.97486037240223E-16
     -8.53990355260337E-19  -7.98340027595484E-16   6.15924785927703E-16   5.65364299465477E-01   5.65364299465477E-01
      0.00000000000000E+00   0.00000000000000E+00   7.98591769236062E-16   8.43426351839627E-20   7.98676111871246E-16
      8.76322154561156E-16  -5.00000000000000E-01  -5.00000000000000E-01   0.00000000000000E+00   0.00000000000000E+00
      0.00000000000000E+00   0.00000000000000E+00   0.00000000000000E+00  -3.50264878725193E-16
      6.59291953435690E-01
      0.00000000000000E+00   0.00000000000000E+00   0.00000000000000E+00   0.00000000000000E+00  -8.01700718481137E-16
     -8.60560664822948E-19  -8.02561279145960E-16   6.15840806170685E-16   6.59291953435690E-01   6.59291953435690E-01
      0.00000000000000E+00   0.00000000000000E+00   8.01974940673239E-16   8.45443585891421E-20   8.02059485031828E-16
      9.00896448229046E-16  -5.00000000000000E-01  -5.00000000000000E-01   0.00000000000000E+00   0.00000000000000E+00
      0.00000000000000E+00   0.00000000000000E+00   0.00000000000000E+00  -3.52519133893134E-16
      7.61986188443124E-01
      0.00000000000000E+00   0.00000000000000E+00   0.00000000000000E+00   0.00000000000000E+00  -8.15147112716652E-16
     -8.86023697281431E-19  -8.16033136413933E-16   6.15520745977348E-16   7.61986188443124E-01   7.61986188443124E-01
      0.00000000000000E+00   0.00000000000000E+00   8.15550291709294E-16   8.47516788736633E-20   8.15635043388168E-16
      9.27318883977628E-16  -5.00000000000000E-01  -5.00000000000000E-01   0.00000000000000E+00   0.00000000000000E+00
      0.00000000000000E+00   0.00000000000000E+00   0.00000000000000E+00  -3.55476243659946E-16
      8.79742244584982E-01
      0.00000000000000E+00   0.00000000000000E+00   0.00000000000000E+00   0.00000000000000E+00  -8.83238730662998E-16
     -1.01890654461779E-18  -8.84257637207615E-16   6.13973898625084E-16   8.79742244584982E-01   8.79742244584982E-01
      0.00000000000000E+00   0.00000000000000E+00   8.83321222713153E-16   8.49696349266913E-20   8.83406192348080E-16
      9.56749029265673E-16  -5.00000000000000E-01  -5.00000000000000E-01   0.00000000000000E+00   0.00000000000000E+00
      0.00000000000000E+00   0.00000000000000E+00   0.00000000000000E+00  -3.61343165489302E-16
      1.00000000000000E+00
      0.00000000000000E+00   0.00000000000000E+00   0.00000000000000E+00   0.00000000000000E+00  -9.68357897905791E-16
     -1.20527967184352E-18  -9.69563177577635E-16   6.12087664065260E-16   1.00000000000000E+00   1.00000000000000E+00
      0.00000000000000E+00   0.00000000000000E+00   9.69342269265460E-16   8.51764404737627E-20   9.69427445705933E-16
      9.86394083812945E-16  -5.00000000000000E-01  -5.00000000000000E-01   0.00000000000000E+00   0.00000000000000E+00
      0.00000000000000E+00   0.00000000000000E+00   0.00000000000000E+00  -3.68005038834697E-16
      0.00000000000000E+00
      0.00000000000000E+00   0.00000000000000E+00   0.00000000000000E+00   0.00000000000000E+00  -9.68276185410073E-16
     -1.20527968697046E-18  -9.69481465097044E-16   6.12087663923315E-16   1.00000000000000E+00   1.00000000000000E+00
      0.00000000000000E+00   0.00000000000000E+00   9.68829869612131E-16   8.51764404732419E-20   9.68915046052604E-16
      9.86394083743011E-16  -5.00000000000000E-01  -5.00000000000000E-01   0.00000000000000E+00   0.00000000000000E+00
      0.00000000000000E+00   0.00000000000000E+00   0.00000000000000E+00  -3.68005039125009E-16
      1.00000000000000E-03
      0.00000000000000E+00   0.00000000000000E+00   0.00000000000000E+00   0.00000000000000E+00  -9.67984674063487E-16
     -1.20476356863394E-18  -9.69189437632121E-16   6.12040943051841E-16   1.00000000000000E+00   1.00000000000000E+00
      0.00000000000000E+00   0.00000000000000E+00   9.68721945362758E-16   8.51764383389553E-20   9.68807121801097E-16
      9.86349456510207E-16  -4.98000000000000E-01  -4.98000000000000E-01   0.00000000000000E+00   0.00000000000000E+00
      0.00000000000000E+00   0.00000000000000E+00   0.00000000000000E+00  -3.65991365336777E-16
      2.17333333333333E-03
      0.00000000000000E+00   0.00000000000000E+00   0.00000000000000E+00   0.00000000000000E+00  -9.68285625446741E-16
     -1.20416560133267E-18  -9.69489791048073E-16   6.11985721366706E-16   1.00000000000000E+00   1.00000000000000E+00
      0.00000000000000E+00   0.00000000000000E+00   9.69326757253794E-16   8.51764354939791E-20   9.69411933689288E-16
      9.86296895790912E-16  -4.95653333333333E-01  -4.95653333333333E-01   0.00000000000000E+00   0.00000000000000E+00
      0.00000000000000E+00   0.00000000000000E+00   0.00000000000000E+00  -3.63632345712696E-16
      3.56568888888889E-03
      0.00000000000000E+00   0.00000000000000E+00   0.00000000000000E+00   0.00000000000000E+00  -9.67294899586130E-16
     -1.20346652366787E-18  -9.68498366109798E-16   6.11919630639141E-16   1.00000000000000E+00   1.00000000000000E+00
      0.00000000000000E+00   0.00000000000000E+00   9.68737272046742E-16   8.51764316435893E-20   9.68822448478386E-16
      9.86234243628738E-16  -4.92868622222222E-01  -4.92868622222222E-01   0.00000000000000E+00   0.00000000000000E+00
      0.00000000000000E+00   0.00000000000000E+00   0.00000000000000E+00  -3.60838197550064E-16
      5.21795081481481E-03
      0.00000000000000E+00   0.00000000000000E+00   0.00000000000000E+00   0.00000000000000E+00  -9.67500912493733E-16
     -1.20265146203980E-18  -9.68703563955772E-16   6.11840418329761E-16   1.00000000000000E+00   1.00000000000000E+00
      0.00000000000000E+00   0.00000000000000E+00   9.68320180858719E-16   8.51764264127213E-20   9.68405357285132E-16
      9.86159497808400E-16  -4.89564098370370E-01  -4.89564098370370E-01   0.00000000000000E+00   0.00000000000000E+00
      0.00000000000000E+00   0.00000000000000E+00   0.00000000000000E+00  -3.57529913183633E-16
      7.17863496691358E-03
      0.00000000000000E+00   0.00000000000000E+00   0.00000000000000E+00   0.00000000000000E+00  -9.67633083383653E-16
     -1.20170422965080E-18  -9.68834787613303E-16   6.11745323780298E-16   1.00000000000000E+00   1.00000000000000E+00
      0.00000000000000E+00   0.00000000000000E+00   9.68815993206707E-16   8.51764192831986E-20   9.68901169625990E-16
      9.86070231147533E-16  -4.85642730066173E-01  -4.85642730066173E-01   0.00000000000000E+00   0.00000000000000E+00
      0.00000000000000E+00   0.00000000000000E+00   0.00000000000000E+00  -3.53614699608635E-16
      9.50531349407078E-03
      0.00000000000000E+00   0.00000000000000E+00   0.00000000000000E+00   0.00000000000000E+00  -9.67115113086317E-16
     -1.20060755702220E-18  -9.68315720643340E-16   6.11630950352997E-16   1.00000000000000E+00   1.00000000000000E+00
      0.00000000000000E+00   0.00000000000000E+00   9.68460049507795E-16   8.51764095397958E-20   9.68545225917335E-16
      9.85963489461546E-16  -4.80989373011858E-01  -4.80989373011858E-01   0.00000000000000E+00   0.00000000000000E+00
      0.00000000000000E+00   0.00000000000000E+00   0.00000000000000E+00  -3.48983837351845E-16
      1.22663053462973E-02
      0.00000000000000E+00   0.00000000000000E+00   0.00000000000000E+00   0.00000000000000E+00  -9.66963716696023E-16
     -1.19934319462561E-18  -9.68163059890648E-16   6.11493104914393E-16   1.00000000000000E+00   1.00000000000000E+00
      0.00000000000000E+00   0.00000000000000E+00   9.67736755897334E-16   8.51763962067774E-20   9.67821932293541E-16
      9.85835661467337E-16  -4.75467389307405E-01  -4.75467389307405E-01   0.00000000000000E+00   0.00000000000000E+00
      0.00000000000000E+00   0.00000000000000E+00   0.00000000000000E+00  -3.43510336791298E-16
      1.55426823442728E-02
      0.00000000000000E+00   0.00000000000000E+00   0.00000000000000E+00   0.00000000000000E+00  -9.66071426719910E-16
     -1.19789368107975E-18  -9.67269320400989E-16   6.11326578159469E-16   1.00000000000000E+00   1.00000000000000E+00
      0.00000000000000E+00   0.00000000000000E+00   9.67244543257223E-16   8.51763779076603E-20   9.67329719635130E-16
      9.85682302277099E-16  -4.68914635311454E-01  -4.68914635311454E-01   0.00000000000000E+00   0.00000000000000E+00
      0.00000000000000E+00   0.00000000000000E+00   0.00000000000000E+00  -3.37046487763145E-16
      1.94306497152037E-02
      0.00000000000000E+00   0.00000000000000E+00   0.00000000000000E+00   0.00000000000000E+00  -9.66190462666075E-16
     -1.19624184473503E-18  -9.67386704510810E-16   6.11124890410446E-16   1.00000000000000E+00   1.00000000000000E+00
      0.00000000000000E+00   0.00000000000000E+00   9.66927199240810E-16   8.51763527765402E-20   9.67012375593586E-16
      9.85497914772975E-16  -4.61138700569592E-01  -4.61138700569592E-01   0.00000000000000E+00   0.00000000000000E+00
      0.00000000000000E+00   0.00000000000000E+00   0.00000000000000E+00  -3.29421351623693E-16
      2.40443709953751E-02
      0.00000000000000E+00   0.00000000000000E+00   0.00000000000000E+00   0.00000000000000E+00  -9.65519384291300E-16
     -1.19437290696827E-18  -9.66713757198268E-16   6.10879941443180E-16   1.00000000000000E+00   1.00000000000000E+00
      0.00000000000000E+00   0.00000000000000E+00   9.66016857378436E-16   8.51763182425400E-20   9.66102033696678E-16
      9.85275647717996E-16  -4.51911258009250E-01  -4.51911258009250E-01   0.00000000000000E+00   0.00000000000000E+00
      0.00000000000000E+00   0.00000000000000E+00   0.00000000000000E+00  -3.20438507386219E-16
      2.95193202478451E-02
      0.00000000000000E+00   0.00000000000000E+00   0.00000000000000E+00   0.00000000000000E+00  -9.66016753063153E-16
     -1.19227625761187E-18  -9.67209029320765E-16   6.10581571192852E-16   1.00000000000000E+00   1.00000000000000E+00
      0.00000000000000E+00   0.00000000000000E+00   9.65681997420385E-16   8.51762707751520E-20   9.65767173691160E-16
      9.85006901043677E-16  -4.40961359504310E-01  -4.40961359504310E-01   0.00000000000000E+00   0.00000000000000E+00
      0.00000000000000E+00   0.00000000000000E+00   0.00000000000000E+00  -3.09874357520779E-16
      3.60162600274429E-02
      0.00000000000000E+00   0.00000000000000E+00   0.00000000000000E+00   0.00000000000000E+00  -9.65106581356886E-16
     -1.18994799739990E-18  -9.66296529354286E-16   6.10216991727949E-16   1.00000000000000E+00   1.00000000000000E+00
      0.00000000000000E+00   0.00000000000000E+00   9.65838728643726E-16   8.51762055377564E-20   9.65923904849263E-16
      9.84680809696680E-16  -4.27967479945114E-01  -4.27967479945114E-01   0.00000000000000E+00   0.00000000000000E+00
      0.00000000000000E+00   0.00000000000000E+00   0.00000000000000E+00  -2.97477571949910E-16
      4.37259618992322E-02
      0.00000000000000E+00   0.00000000000000E+00   0.00000000000000E+00   0.00000000000000E+00  -9.66427399501701E-16
     -1.18739441515107E-18  -9.67614793916853E-16   6.09770041203241E-16   1.00000000000000E+00   1.00000000000000E+00
      0.00000000000000E+00   0.00000000000000E+00   9.63954322581181E-16   8.51761159328728E-20   9.64039498697114E-16
      9.84283594374194E-16  -4.12548076201536E-01  -4.12548076201536E-01   0.00000000000000E+00   0.00000000000000E+00
      0.00000000000000E+00   0.00000000000000E+00   0.00000000000000E+00  -2.82970495952174E-16
      5.28748081204222E-02
      0.00000000000000E+00   0.00000000000000E+00   0.00000000000000E+00   0.00000000000000E+00  -9.65979102201260E-16
     -1.18463850156814E-18  -9.67163740702828E-16   6.09220149337896E-16   1.00000000000000E+00   1.00000000000000E+00