DF-ISE text

Info {
  version   = 1.0
  type      = xyplot
  datasets  = [
    "time"
    "S OuterVoltage" "S InnerVoltage" "S QuasiFermiPotential" "S DisplacementCurrent" "S eCurrent"
    "S hCurrent" "S TotalCurrent" "S Charge" "D OuterVoltage" "D InnerVoltage"
    "D QuasiFermiPotential" "D DisplacementCurrent" "D eCurrent" "D hCurrent" "D TotalCurrent"
    "D Charge" "G OuterVoltage" "G InnerVoltage" "G QuasiFermiPotential" "G DisplacementCurrent"
    "G eCurrent" "G hCurrent" "G TotalCurrent" "G Charge" ]
  functions = [
    Time
    OuterVoltage InnerVoltage QuasiFermiPotential DisplacementCurrent eCurrent
    hCurrent TotalCurrent Charge OuterVoltage InnerVoltage
    QuasiFermiPotential DisplacementCurrent eCurrent hCurrent TotalCurrent
    Charge OuterVoltage InnerVoltage QuasiFermiPotential DisplacementCurrent
    eCurrent hCurrent TotalCurrent Charge ]
}

Data {
      0.00000000000000E+00
      0.00000000000000E+00   0.00000000000000E+00   0.00000000000000E+00   0.00000000000000E+00   2.74377777711877E-19
     -5.09269721526880E-34   2.74377777711876E-19   6.66438609057075E-16   0.00000000000000E+00   0.00000000000000E+00
      0.00000000000000E+00   0.00000000000000E+00   2.57444089638420E-27  -5.11392986283472E-34   2.57444038499121E-27
      8.44837857965840E-16  -5.00000000000000E-01  -5.00000000000000E-01   0.00000000000000E+00   0.00000000000000E+00
      0.00000000000000E+00   0.00000000000000E+00   0.00000000000000E+00  -3.55747522287716E-16
      0.00000000000000E+00
      0.00000000000000E+00   0.00000000000000E+00   0.00000000000000E+00   0.00000000000000E+00   2.74377677525208E-19
      2.95096685537869E-31   2.74377677525503E-19   6.66438607905212E-16   0.00000000000000E+00   0.00000000000000E+00
      0.00000000000000E+00   0.00000000000000E+00   1.91404330379298E-18   2.95759919781834E-31   1.91404330379328E-18
      8.44837856662106E-16  -5.00000000000000E-01  -5.00000000000000E-01   0.00000000000000E+00   0.00000000000000E+00
      0.00000000000000E+00   0.00000000000000E+00   0.00000000000000E+00  -3.55747522289190E-16
      1.00000000000000E-03
      0.00000000000000E+00   0.00000000000000E+00   0.00000000000000E+00   0.00000000000000E+00  -3.94965140933896E-18
     -9.48805948205391E-22  -3.95060021528716E-18   6.66214644189293E-16   1.00000000000000E-03   1.00000000000000E-03
      0.00000000000000E+00   0.00000000000000E+00   3.40296339023389E-18   9.18930664591402E-22   3.40388232089849E-18
      8.45212593041560E-16  -5.00000000000000E-01  -5.00000000000000E-01   0.00000000000000E+00   0.00000000000000E+00
      0.00000000000000E+00   0.00000000000000E+00   0.00000000000000E+00  -3.56287512185425E-16
      2.17333333333333E-03
      0.00000000000000E+00   0.00000000000000E+00   0.00000000000000E+00   0.00000000000000E+00  -9.30535752624743E-18
     -2.07169576655384E-21  -9.30742922201398E-18   6.65954938127286E-16   2.17333333333333E-03   2.17333333333333E-03
      0.00000000000000E+00   0.00000000000000E+00   9.56748728989781E-18   1.98798687485070E-21   9.56947527677266E-18
      8.45655527136292E-16  -5.00000000000000E-01  -5.00000000000000E-01   0.00000000000000E+00   0.00000000000000E+00
      0.00000000000000E+00   0.00000000000000E+00   0.00000000000000E+00  -3.56915554220851E-16
      3.56568888888889E-03
      0.00000000000000E+00   0.00000000000000E+00   0.00000000000000E+00   0.00000000000000E+00  -1.42266924264930E-17
     -3.41708454689921E-21  -1.42301095110399E-17   6.65651074665238E-16   3.56568888888889E-03   3.56568888888889E-03
      0.00000000000000E+00   0.00000000000000E+00   1.47442007220927E-17   3.24323633629375E-21   1.47474439584290E-17
      8.46185679434100E-16  -5.00000000000000E-01  -5.00000000000000E-01   0.00000000000000E+00   0.00000000000000E+00
      0.00000000000000E+00   0.00000000000000E+00   0.00000000000000E+00  -3.57653047562127E-16
      5.21795081481481E-03
      0.00000000000000E+00   0.00000000000000E+00   0.00000000000000E+00   0.00000000000000E+00  -2.01584695881253E-17
     -5.03075168500264E-21  -2.01635003398103E-17   6.65296586848251E-16   5.21795081481481E-03   5.21795081481481E-03
      0.00000000000000E+00   0.00000000000000E+00   2.30972117387446E-17   4.71311874983595E-21   2.31019248574944E-17
      8.46821168486474E-16  -5.00000000000000E-01  -5.00000000000000E-01   0.00000000000000E+00   0.00000000000000E+00
      0.00000000000000E+00   0.00000000000000E+00   0.00000000000000E+00  -3.58517228861987E-16
      7.17863496691358E-03
      0.00000000000000E+00   0.00000000000000E+00   0.00000000000000E+00   0.00000000000000E+00  -2.99345104542808E-17
     -6.96801168970416E-21  -2.99414784659705E-17   6.64884526944087E-16   7.17863496691358E-03   7.17863496691358E-03
      0.00000000000000E+00   0.00000000000000E+00   3.11513218653514E-17   6.42829550490153E-21   3.11577501608563E-17
      8.47584228723748E-16  -5.00000000000000E-01  -5.00000000000000E-01   0.00000000000000E+00   0.00000000000000E+00
      0.00000000000000E+00   0.00000000000000E+00   0.00000000000000E+00  -3.59527248284739E-16
      9.50531349407078E-03
      0.00000000000000E+00   0.00000000000000E+00   0.00000000000000E+00   0.00000000000000E+00  -3.78807026946872E-17
     -9.29534846677229E-21  -3.78899980431540E-17   6.64407668107970E-16   9.50531349407078E-03   9.50531349407078E-03
      0.00000000000000E+00   0.00000000000000E+00   3.70852761186864E-17   8.42053914008872E-21   3.70936966578265E-17
      8.48502260748975E-16  -5.00000000000000E-01  -5.00000000000000E-01   0.00000000000000E+00   0.00000000000000E+00
      0.00000000000000E+00   0.00000000000000E+00   0.00000000000000E+00  -3.60704005139843E-16
      1.22663053462973E-02
      0.00000000000000E+00   0.00000000000000E+00   0.00000000000000E+00   0.00000000000000E+00  -4.93321913489420E-17
     -1.20918938602428E-20  -4.93442832428022E-17   6.63858853164353E-16   1.22663053462973E-02   1.22663053462973E-02
      0.00000000000000E+00   0.00000000000000E+00   5.10815511093500E-17   1.07206968167232E-20   5.10922718061668E-17
      8.49609174686008E-16  -5.00000000000000E-01  -5.00000000000000E-01   0.00000000000000E+00   0.00000000000000E+00
      0.00000000000000E+00   0.00000000000000E+00   0.00000000000000E+00  -3.62069757826078E-16
      1.55426823442728E-02
      0.00000000000000E+00   0.00000000000000E+00   0.00000000000000E+00   0.00000000000000E+00  -6.11101622973565E-17
     -1.54502653406612E-20  -6.11256125626972E-17   6.63231549061094E-16   1.55426823442728E-02   1.55426823442728E-02
      0.00000000000000E+00   0.00000000000000E+00   6.23320094760443E-17   1.33552786608186E-20   6.23453647547052E-17
      8.50947101233441E-16  -5.00000000000000E-01  -5.00000000000000E-01   0.00000000000000E+00   0.00000000000000E+00
      0.00000000000000E+00   0.00000000000000E+00   0.00000000000000E+00  -3.63647411129259E-16
      1.94306497152037E-02
      0.00000000000000E+00   0.00000000000000E+00   0.00000000000000E+00   0.00000000000000E+00  -7.63725691303223E-17
     -1.94758223728683E-20  -7.63920449526952E-17   6.62520680718609E-16   1.94306497152037E-02   1.94306497152037E-02
      0.00000000000000E+00   0.00000000000000E+00   7.99169041061356E-17   1.63411405648583E-20   7.99332452467005E-17
      8.52568554850147E-16  -5.00000000000000E-01  -5.00000000000000E-01   0.00000000000000E+00   0.00000000000000E+00
      0.00000000000000E+00   0.00000000000000E+00   0.00000000000000E+00  -3.65459358795824E-16
      2.40443709953751E-02
      0.00000000000000E+00   0.00000000000000E+00   0.00000000000000E+00   0.00000000000000E+00  -9.49738989526675E-17
     -2.42827641397274E-20  -9.49981817168072E-17   6.61723810344026E-16   2.40443709953751E-02   2.40443709953751E-02
      0.00000000000000E+00   0.00000000000000E+00   9.52106183099307E-17   1.96777233756855E-20   9.52302960333064E-17
      8.54539112794943E-16  -5.00000000000000E-01  -5.00000000000000E-01   0.00000000000000E+00   0.00000000000000E+00
      0.00000000000000E+00   0.00000000000000E+00   0.00000000000000E+00  -3.67525775389968E-16
      2.95193202478451E-02
      0.00000000000000E+00   0.00000000000000E+00   0.00000000000000E+00   0.00000000000000E+00  -1.16468501451918E-16
     -2.99845447371782E-20  -1.16498485996656E-16   6.60842706978446E-16   2.95193202478451E-02   2.95193202478451E-02
      0.00000000000000E+00   0.00000000000000E+00   1.17760365478350E-16   2.33366595661396E-20   1.17783702137917E-16
      8.56940627902040E-16  -5.00000000000000E-01  -5.00000000000000E-01   0.00000000000000E+00   0.00000000000000E+00
      0.00000000000000E+00   0.00000000000000E+00   0.00000000000000E+00  -3.69862292671350E-16
      3.60162600274429E-02
      0.00000000000000E+00   0.00000000000000E+00   0.00000000000000E+00   0.00000000000000E+00  -1.38424115476677E-16
     -3.66752361373699E-20  -1.38460790712814E-16   6.59885256964418E-16   3.60162600274429E-02   3.60162600274429E-02
      0.00000000000000E+00   0.00000000000000E+00   1.38320216404358E-16   2.72495025513845E-20   1.38347465906909E-16
      8.59874854078937E-16  -5.00000000000000E-01  -5.00000000000000E-01   0.00000000000000E+00   0.00000000000000E+00
      0.00000000000000E+00   0.00000000000000E+00   0.00000000000000E+00  -3.72477167253341E-16
      4.37259618992322E-02
      0.00000000000000E+00   0.00000000000000E+00   0.00000000000000E+00   0.00000000000000E+00  -1.66902392432620E-16
     -4.43985193299687E-20  -1.66946790951950E-16   6.58867474126954E-16   4.37259618992322E-02   4.37259618992322E-02
      0.00000000000000E+00   0.00000000000000E+00   1.63254082307088E-16   3.12963459492732E-20   1.63285378653037E-16
      8.63467097516671E-16  -5.00000000000000E-01  -5.00000000000000E-01   0.00000000000000E+00   0.00000000000000E+00
      0.00000000000000E+00   0.00000000000000E+00   0.00000000000000E+00  -3.75368392241412E-16
      5.28748081204222E-02
      0.00000000000000E+00   0.00000000000000E+00   0.00000000000000E+00   0.00000000000000E+00  -1.95316599189194E-16
     -5.31042416491019E-20  -1.95369703430843E-16   6.57814996451517E-16   5.28748081204222E-02   5.28748081204222E-02
      0.00000000000000E+00   0.00000000000000E+00   1.92012798125887E-16   3.53012143425839E-20   1.92048099340229E-16
      8.67869019908241E-16  -5.00000000000000E-01  -5.00000000000000E-01   0.00000000000000E+00   0.00000000000000E+00
      0.00000000000000E+00   0.00000000000000E+00   0.00000000000000E+00  -3.78521870307134E-16
      6.36094543532852E-02
      0.00000000000000E+00   0.00000000000000E+00   0.00000000000000E+00   0.00000000000000E+00  -2.23210552999340E-16
     -6.24998820786184E-20  -2.23273052881418E-16   6.56773777853915E-16   6.36094543532852E-02   6.36094543532852E-02
      0.00000000000000E+00   0.00000000000000E+00   2.21562474255279E-16   3.90068272830725E-20   2.21601481082562E-16
      8.73197715419700E-16  -5.00000000000000E-01  -5.00000000000000E-01   0.00000000000000E+00   0.00000000000000E+00
      0.00000000000000E+00   0.00000000000000E+00   0.00000000000000E+00  -3.81876335576839E-16
      7.62047725998443E-02
      0.00000000000000E+00   0.00000000000000E+00   0.00000000000000E+00   0.00000000000000E+00  -2.51437581126189E-16
     -7.22369570224713E-20  -2.51509818083211E-16   6.55781990476461E-16   7.62047725998443E-02   7.62047725998443E-02
      0.00000000000000E+00   0.00000000000000E+00   2.53709953118998E-16   4.22065957112377E-20   2.53752159714709E-16
      8.79627223350483E-16  -5.00000000000000E-01  -5.00000000000000E-01   0.00000000000000E+00   0.00000000000000E+00
      0.00000000000000E+00   0.00000000000000E+00   0.00000000000000E+00  -3.85402530535153E-16
      9.09832793424738E-02
      0.00000000000000E+00   0.00000000000000E+00   0.00000000000000E+00   0.00000000000000E+00  -2.78013260028781E-16
     -8.18588307255700E-20  -2.78095118859507E-16   6.54875998554728E-16   9.09832793424738E-02   9.09832793424738E-02
      0.00000000000000E+00   0.00000000000000E+00   2.80622161272080E-16   4.47461678244986E-20   2.80666907439904E-16
      8.87339211729425E-16  -5.00000000000000E-01  -5.00000000000000E-01   0.00000000000000E+00   0.00000000000000E+00
      0.00000000000000E+00   0.00000000000000E+00   0.00000000000000E+00  -3.89081301814483E-16
      1.08323393920492E-01
      0.00000000000000E+00   0.00000000000000E+00   0.00000000000000E+00   0.00000000000000E+00  -3.04633685543980E-16
     -9.09067527323967E-20  -3.04724592296712E-16   6.54081864155590E-16   1.08323393920492E-01   1.08323393920492E-01
      0.00000000000000E+00   0.00000000000000E+00   3.04965069626457E-16   4.65721282635330E-20   3.05011641754721E-16
      8.96509146470000E-16  -5.00000000000000E-01  -5.00000000000000E-01   0.00000000000000E+00   0.00000000000000E+00
      0.00000000000000E+00   0.00000000000000E+00   0.00000000000000E+00  -3.92919775708075E-16
      1.28669128358701E-01
      0.00000000000000E+00   0.00000000000000E+00   0.00000000000000E+00   0.00000000000000E+00  -3.28208633641365E-16
     -9.90672817259367E-20  -3.28307700923091E-16   6.53407732859499E-16   1.28669128358701E-01   1.28669128358701E-01
      0.00000000000000E+00   0.00000000000000E+00   3.27979176570752E-16   4.77494788250127E-20   3.28026926049577E-16
      9.07290224050814E-16  -5.00000000000000E-01  -5.00000000000000E-01   0.00000000000000E+00   0.00000000000000E+00
      0.00000000000000E+00   0.00000000000000E+00   0.00000000000000E+00  -3.96965981795993E-16
      1.52541456766199E-01
      0.00000000000000E+00   0.00000000000000E+00   0.00000000000000E+00   0.00000000000000E+00  -3.47077111265817E-16
     -1.06280437270087E-19  -3.47183391703087E-16   6.52841563947309E-16   1.52541456766199E-01   1.52541456766199E-01
      0.00000000000000E+00   0.00000000000000E+00   3.45986448393174E-16   4.84315953846844E-20   3.46034879988558E-16
      9.19800285003615E-16  -5.00000000000000E-01  -5.00000000000000E-01   0.00000000000000E+00   0.00000000000000E+00
      0.00000000000000E+00   0.00000000000000E+00   0.00000000000000E+00  -4.01313991484958E-16
      1.80551655430996E-01
      0.00000000000000E+00   0.00000000000000E+00   0.00000000000000E+00   0.00000000000000E+00  -3.61503490065736E-16
     -1.12709754101793E-19  -3.61616199819838E-16   6.52358264002128E-16   1.80551655430996E-01   1.80551655430996E-01
      0.00000000000000E+00   0.00000000000000E+00   3.62581535205222E-16   4.87982016386919E-20   3.62630333406860E-16
      9.34122023246736E-16  -5.00000000000000E-01  -5.00000000000000E-01   0.00000000000000E+00   0.00000000000000E+00
      0.00000000000000E+00   0.00000000000000E+00   0.00000000000000E+00  -4.06092433024859E-16
      2.13416955197692E-01
      0.00000000000000E+00   0.00000000000000E+00   0.00000000000000E+00   0.00000000000000E+00  -3.75105130853480E-16
     -1.18539284288755E-19  -3.75223670137769E-16   6.51936072582701E-16   2.13416955197692E-01   2.13416955197692E-01
      0.00000000000000E+00   0.00000000000000E+00   3.77320479912664E-16   4.89991131647670E-20   3.77369479025828E-16
      9.50334834141946E-16  -5.00000000000000E-01  -5.00000000000000E-01   0.00000000000000E+00   0.00000000000000E+00
      0.00000000000000E+00   0.00000000000000E+00   0.00000000000000E+00  -4.11436673172381E-16
      2.51978906923948E-01
      0.00000000000000E+00   0.00000000000000E+00   0.00000000000000E+00   0.00000000000000E+00  -3.91266756741280E-16
     -1.23763720350765E-19  -3.91390520461631E-16   6.51569761015694E-16   2.51978906923948E-01   2.51978906923948E-01
      0.00000000000000E+00   0.00000000000000E+00   3.88287031091227E-16   4.91306221721821E-20   3.88336161713399E-16
      9.68590271636517E-16  -5.00000000000000E-01  -5.00000000000000E-01   0.00000000000000E+00   0.00000000000000E+00
      0.00000000000000E+00   0.00000000000000E+00   0.00000000000000E+00  -4.17466200407349E-16
      2.96710770926406E-01
      0.00000000000000E+00   0.00000000000000E+00   0.00000000000000E+00   0.00000000000000E+00  -4.02025723668747E-16
     -1.28240338527822E-19  -4.02153964007275E-16   6.51264402143817E-16   2.96710770926406E-01   2.96710770926406E-01
      0.00000000000000E+00   0.00000000000000E+00   4.03615471204485E-16   4.92412953495695E-20   4.03664712499835E-16
      9.88962164252112E-16  -5.00000000000000E-01  -5.00000000000000E-01   0.00000000000000E+00   0.00000000000000E+00
      0.00000000000000E+00   0.00000000000000E+00   0.00000000000000E+00  -4.24223086227605E-16
      3.49196158022622E-01
      0.00000000000000E+00   0.00000000000000E+00   0.00000000000000E+00   0.00000000000000E+00  -4.11900023673605E-16
     -1.32230071853219E-19  -4.12032253745459E-16   6.50998532263733E-16   3.49196158022622E-01   3.49196158022622E-01
      0.00000000000000E+00   0.00000000000000E+00   4.06985336466371E-16   4.93540378371133E-20   4.07034690504209E-16
      1.01211021560946E-15  -5.00000000000000E-01  -5.00000000000000E-01   0.00000000000000E+00   0.00000000000000E+00
      0.00000000000000E+00   0.00000000000000E+00   0.00000000000000E+00  -4.31933845919743E-16
      4.10079207054234E-01
      0.00000000000000E+00   0.00000000000000E+00   0.00000000000000E+00   0.00000000000000E+00  -4.22939449565810E-16
     -1.36295111211172E-19  -4.23075744677021E-16   6.50733459535715E-16   4.10079207054234E-01   4.10079207054234E-01
      0.00000000000000E+00   0.00000000000000E+00   4.21241303333539E-16   4.94760310204438E-20   4.21290779364560E-16
      1.03824720826114E-15  -5.00000000000000E-01  -5.00000000000000E-01   0.00000000000000E+00   0.00000000000000E+00
      0.00000000000000E+00   0.00000000000000E+00   0.00000000000000E+00  -4.40689976236781E-16
      4.80703543930903E-01
      0.00000000000000E+00   0.00000000000000E+00   0.00000000000000E+00   0.00000000000000E+00  -4.29207406338637E-16
     -1.39883894505337E-19  -4.29347290233142E-16   6.50504085413775E-16   4.80703543930903E-01   4.80703543930903E-01
      0.00000000000000E+00   0.00000000000000E+00   4.32055369908578E-16   4.96109912727847E-20   4.32104980899851E-16
      1.06781036766664E-15  -5.00000000000000E-01  -5.00000000000000E-01   0.00000000000000E+00   0.00000000000000E+00
      0.00000000000000E+00   0.00000000000000E+00   0.00000000000000E+00  -4.50475426536503E-16
      5.62627774707839E-01
      0.00000000000000E+00   0.00000000000000E+00   0.00000000000000E+00   0.00000000000000E+00  -4.35945581433974E-16
     -1.42159442907100E-19  -4.36087740876881E-16   6.50360729691797E-16   5.62627774707839E-01   5.62627774707839E-01
      0.00000000000000E+00   0.00000000000000E+00   4.34591695994783E-16   4.97609708587244E-20   4.34641456965641E-16
      1.10100900640502E-15  -5.00000000000000E-01  -5.00000000000000E-01   0.00000000000000E+00   0.00000000000000E+00
      0.00000000000000E+00   0.00000000000000E+00   0.00000000000000E+00  -4.61084637512117E-16
      6.57659882409085E-01
      0.00000000000000E+00   0.00000000000000E+00   0.00000000000000E+00   0.00000000000000E+00  -4.42661365166482E-16
     -1.46200035442595E-19  -4.42807565201925E-16   6.50110393063102E-16   6.57659882409085E-01   6.57659882409085E-01
      0.00000000000000E+00   0.00000000000000E+00   4.43204135919518E-16   4.99262632940784E-20   4.43254062182812E-16
      1.13722972824218E-15  -5.00000000000000E-01  -5.00000000000000E-01   0.00000000000000E+00   0.00000000000000E+00
      0.00000000000000E+00   0.00000000000000E+00   0.00000000000000E+00  -4.72240992922957E-16
      7.67897127342530E-01
      0.00000000000000E+00   0.00000000000000E+00   0.00000000000000E+00   0.00000000000000E+00  -4.89619992379113E-16
     -1.66320409772475E-19  -4.89786312788886E-16   6.48936092057374E-16   7.67897127342530E-01   7.67897127342530E-01
      0.00000000000000E+00   0.00000000000000E+00   4.89255516584845E-16   5.01040132111950E-20   4.89305620598057E-16
      1.17444379020119E-15  -5.00000000000000E-01  -5.00000000000000E-01   0.00000000000000E+00   0.00000000000000E+00
      0.00000000000000E+00   0.00000000000000E+00   0.00000000000000E+00  -4.83946477082448E-16
      8.92832671600435E-01
      0.00000000000000E+00   0.00000000000000E+00   0.00000000000000E+00   0.00000000000000E+00  -5.99560878728159E-16
     -2.18190281615069E-19  -5.99779069009774E-16   6.46345482854502E-16   8.92832671600435E-01   8.92832671600435E-01
      0.00000000000000E+00   0.00000000000000E+00   6.00138208419184E-16   5.02886563345865E-20   6.00188497075518E-16
      1.21202921056467E-15  -5.00000000000000E-01  -5.00000000000000E-01   0.00000000000000E+00   0.00000000000000E+00
      0.00000000000000E+00   0.00000000000000E+00   0.00000000000000E+00  -4.96873964887520E-16
      1.00000000000000E+00
      0.00000000000000E+00   0.00000000000000E+00   0.00000000000000E+00   0.00000000000000E+00  -6.44446670133951E-16
     -2.40909224925252E-19  -6.44687579358876E-16   6.45363100066069E-16   1.00000000000000E+00   1.00000000000000E+00
      0.00000000000000E+00   0.00000000000000E+00   6.44579672321088E-16   5.04410534634783E-20   6.44630113374551E-16
      1.24399373038324E-15  -5.00000000000000E-01  -5.00000000000000E-01   0.00000000000000E+00   0.00000000000000E+00
      0.00000000000000E+00   0.00000000000000E+00   0.00000000000000E+00  -5.05316964422672E-16
      0.00000000000000E+00
      0.00000000000000E+00   0.00000000000000E+00   0.00000000000000E+00   0.00000000000000E+00  -6.43882960344503E-16
     -2.40909285963053E-19  -6.44123869630466E-16   6.45363097530569E-16   1.00000000000000E+00   1.00000000000000E+00
      0.00000000000000E+00   0.00000000000000E+00   6.44991680519898E-16   5.04410534558231E-20   6.45042121573354E-16
      1.24399372907632E-15  -5.00000000000000E-01  -5.00000000000000E-01   0.00000000000000E+00   0.00000000000000E+00
      0.00000000000000E+00   0.00000000000000E+00   0.00000000000000E+00  -5.05316968841805E-16
      1.00000000000000E-03
      0.00000000000000E+00   0.00000000000000E+00   0.00000000000000E+00   0.00000000000000E+00  -6.46933422496855E-16
     -2.40856571969277E-19  -6.47174279068824E-16   6.45294306059289E-16   1.00000000000000E+00   1.00000000000000E+00
      0.00000000000000E+00   0.00000000000000E+00   6.44064211007930E-16   5.04410414590357E-20   6.44114652049389E-16
      1.24386968384908E-15  -4.98000000000000E-01  -4.98000000000000E-01   0.00000000000000E+00   0.00000000000000E+00
      0.00000000000000E+00   0.00000000000000E+00   0.00000000000000E+00  -5.03504913874653E-16
      2.17333333333333E-03
      0.00000000000000E+00   0.00000000000000E+00   0.00000000000000E+00   0.00000000000000E+00  -6.46028521523772E-16
     -2.40794248749989E-19  -6.46269315772522E-16   6.45213363186993E-16   1.00000000000000E+00   1.00000000000000E+00
      0.00000000000000E+00   0.00000000000000E+00   6.47565777141544E-16   5.04410274070701E-20   6.47616218168951E-16
      1.24372401123206E-15  -4.95653333333333E-01  -4.95653333333333E-01   0.00000000000000E+00   0.00000000000000E+00
      0.00000000000000E+00   0.00000000000000E+00   0.00000000000000E+00  -5.01381805978491E-16
      3.56568888888889E-03
      0.00000000000000E+00   0.00000000000000E+00   0.00000000000000E+00   0.00000000000000E+00  -6.44548178726259E-16
     -2.40719601196295E-19  -6.44788898327455E-16   6.45116996078486E-16   1.00000000000000E+00   1.00000000000000E+00
      0.00000000000000E+00   0.00000000000000E+00   6.45814122546730E-16   5.04410107690153E-20   6.45864563557499E-16
      1.24355096667390E-15  -4.92868622222222E-01  -4.92868622222222E-01   0.00000000000000E+00   0.00000000000000E+00
      0.00000000000000E+00   0.00000000000000E+00   0.00000000000000E+00  -4.98866695270318E-16
      5.21795081481481E-03
      0.00000000000000E+00   0.00000000000000E+00   0.00000000000000E+00   0.00000000000000E+00  -6.47281647948230E-16
     -2.40629998582659E-19  -6.47522277946813E-16   6.45002203278310E-16   1.00000000000000E+00   1.00000000000000E+00
      0.00000000000000E+00   0.00000000000000E+00   6.42929238875069E-16   5.04409910820531E-20   6.42979679866151E-16
      1.24334536240356E-15  -4.89564098370370E-01  -4.89564098370370E-01   0.00000000000000E+00   0.00000000000000E+00
      0.00000000000000E+00   0.00000000000000E+00   0.00000000000000E+00  -4.95888264301311E-16
      7.17863496691358E-03
      0.00000000000000E+00   0.00000000000000E+00   0.00000000000000E+00   0.00000000000000E+00  -6.44642263415064E-16
     -2.40522138741829E-19  -6.44882785553805E-16   6.44865377589639E-16   1.00000000000000E+00   1.00000000000000E+00
      0.00000000000000E+00   0.00000000000000E+00   6.44061397870324E-16   5.04409678099726E-20   6.44111838838134E-16
      1.24310100695651E-15  -4.85642730066173E-01  -4.85642730066173E-01   0.00000000000000E+00   0.00000000000000E+00
      0.00000000000000E+00   0.00000000000000E+00   0.00000000000000E+00  -4.92362709672382E-16
      9.50531349407078E-03
      0.00000000000000E+00   0.00000000000000E+00   0.00000000000000E+00   0.00000000000000E+00  -6.45927697239004E-16
     -2.40391837417137E-19  -6.46168089076421E-16   6.44702176287100E-16   1.00000000000000E+00   1.00000000000000E+00
      0.00000000000000E+00   0.00000000000000E+00   6.46326532594354E-16   5.04409403356387E-20   6.46376973534689E-16
      1.24281050049676E-15  -4.80989373011858E-01  -4.80989373011858E-01   0.00000000000000E+00   0.00000000000000E+00
      0.00000000000000E+00   0.00000000000000E+00   0.00000000000000E+00  -4.88191801151936E-16
      1.22663053462973E-02
      0.00000000000000E+00   0.00000000000000E+00   0.00000000000000E+00   0.00000000000000E+00  -6.47186687104453E-16
     -2.40233724937024E-19  -6.47426920829390E-16   6.44507361581560E-16   1.00000000000000E+00   1.00000000000000E+00
      0.00000000000000E+00   0.00000000000000E+00   6.48694585622153E-16   5.04409079564655E-20   6.48745026530110E-16
      1.24246498287774E-15  -4.75467389307405E-01  -4.75467389307405E-01   0.00000000000000E+00   0.00000000000000E+00
      0.00000000000000E+00   0.00000000000000E+00   0.00000000000000E+00  -4.83260776752815E-16
      1.55426823442728E-02
      0.00000000000000E+00   0.00000000000000E+00   0.00000000000000E+00   0.00000000000000E+00  -6.47567145049446E-16
     -2.40040798201433E-19  -6.47807185847648E-16   6.44274604005317E-16   1.00000000000000E+00   1.00000000000000E+00
      0.00000000000000E+00   0.00000000000000E+00   6.44675543143644E-16   5.04408698865689E-20   6.44725984013531E-16
      1.24205382035801E-15  -4.68914635311454E-01  -4.68914635311454E-01   0.00000000000000E+00   0.00000000000000E+00
      0.00000000000000E+00   0.00000000000000E+00   0.00000000000000E+00  -4.77436154833413E-16
      1.94306497152037E-02
      0.00000000000000E+00   0.00000000000000E+00   0.00000000000000E+00   0.00000000000000E+00  -6.47623875448419E-16
     -2.39803788576639E-19  -6.47863679236995E-16   6.43996237278689E-16   1.00000000000000E+00   1.00000000000000E+00
      0.00000000000000E+00   0.00000000000000E+00   6.47970306882903E-16   5.04408252664419E-20   6.48020747708170E-16
      1.24156420988648E-15  -4.61138700569592E-01  -4.61138700569592E-01   0.00000000000000E+00   0.00000000000000E+00
      0.00000000000000E+00   0.00000000000000E+00   0.00000000000000E+00  -4.70563632731551E-16
      2.40443709953751E-02
      0.00000000000000E+00   0.00000000000000E+00   0.00000000000000E+00   0.00000000000000E+00  -6.45935509234521E-16
     -2.39510209034282E-19  -6.46175019443556E-16   6.43662951429167E-16   1.00000000000000E+00   1.00000000000000E+00
      0.00000000000000E+00   0.00000000000000E+00   6.43538163914884E-16   5.04407731913445E-20   6.43588604688075E-16
      1.24098067129889E-15  -4.51911258009250E-01  -4.51911258009250E-01   0.00000000000000E+00   0.00000000000000E+00
      0.00000000000000E+00   0.00000000000000E+00   0.00000000000000E+00  -4.62466386855323E-16
      2.95193202478451E-02
      0.00000000000000E+00   0.00000000000000E+00   0.00000000000000E+00   0.00000000000000E+00  -6.46432962316113E-16
     -2.39142935395453E-19  -6.46672105251509E-16   6.43263401083268E-16   1.00000000000000E+00   1.00000000000000E+00
      0.00000000000000E+00   0.00000000000000E+00   6.45286818792676E-16   5.04407127679772E-20   6.45337259505444E-16
      1.24028438092747E-15  -4.40961359504310E-01  -4.40961359504310E-01   0.00000000000000E+00   0.00000000000000E+00
      0.00000000000000E+00   0.00000000000000E+00   0.00000000000000E+00  -4.52944349026085E-16
      3.60162600274429E-02
      0.00000000000000E+00   0.00000000000000E+00   0.00000000000000E+00   0.00000000000000E+00  -6.47401971381872E-16
     -2.38678118306455E-19  -6.47640649500179E-16   6.42783689204946E-16   1.00000000000000E+00   1.00000000000000E+00
      0.00000000000000E+00   0.00000000000000E+00   6.48271479271136E-16   5.04406432128772E-20   6.48321919914349E-16
      1.23945227454846E-15  -4.27967479945114E-01  -4.27967479945114E-01   0.00000000000000E+00   0.00000000000000E+00
      0.00000000000000E+00   0.00000000000000E+00   0.00000000000000E+00  -4.41775460720543E-16
      4.37259618992322E-02
      0.00000000000000E+00   0.00000000000000E+00   0.00000000000000E+00   0.00000000000000E+00  -6.46279661991097E-16
     -2.38081915763198E-19  -6.46517743906860E-16   6.42206661931124E-16   1.00000000000000E+00   1.00000000000000E+00
      0.00000000000000E+00   0.00000000000000E+00   6.43836493604564E-16   5.04405640419674E-20   6.43886934168606E-16
      1.23845581404134E-15  -4.12548076201536E-01  -4.12548076201536E-01   0.00000000000000E+00   0.00000000000000E+00
      0.00000000000000E+00   0.00000000000000E+00   0.00000000000000E+00  -4.28720554211167E-16
      5.28748081204222E-02
      0.00000000000000E+00   0.00000000000000E+00   0.00000000000000E+00   0.00000000000000E+00  -6.47504457638921E-16
     -2.37305901875429E-19  -6.47741763540796E-16   6.41510859881588E-16   1.00000000000000E+00   1.00000000000000E+00