DF-ISE text

Info {
  version   = 1.0
  type      = xyplot
  datasets  = [
    "time"
    "S OuterVoltage" "S InnerVoltage" "S QuasiFermiPotential" "S DisplacementCurrent" "S eCurrent"
    "S hCurrent" "S TotalCurrent" "S Charge" "D OuterVoltage" "D InnerVoltage"
    "D QuasiFermiPotential" "D DisplacementCurrent" "D eCurrent" "D hCurrent" "D TotalCurrent"
    "D Charge" "G OuterVoltage" "G InnerVoltage" "G QuasiFermiPotential" "G DisplacementCurrent"
    "G eCurrent" "G hCurrent" "G TotalCurrent" "G Charge" ]
  functions = [
    Time
    OuterVoltage InnerVoltage QuasiFermiPotential DisplacementCurrent eCurrent
    hCurrent TotalCurrent Charge OuterVoltage InnerVoltage
    QuasiFermiPotential DisplacementCurrent eCurrent hCurrent TotalCurrent
    Charge OuterVoltage InnerVoltage QuasiFermiPotential DisplacementCurrent
    eCurrent hCurrent TotalCurrent Charge ]
}

Data {
      0.00000000000000E+00
      0.00000000000000E+00   0.00000000000000E+00   0.00000000000000E+00   0.00000000000000E+00   2.74353677758323E-19
     -5.14437208549483E-34   2.74353677758323E-19   6.79835804427726E-16   0.00000000000000E+00   0.00000000000000E+00
      0.00000000000000E+00   0.00000000000000E+00  -2.73398723494127E-19  -5.15734107171648E-34  -2.73398723494128E-19
      8.75489247157471E-16  -5.00000000000000E-01  -5.00000000000000E-01   0.00000000000000E+00   0.00000000000000E+00
      0.00000000000000E+00   0.00000000000000E+00   0.00000000000000E+00  -3.05080838793377E-16
      0.00000000000000E+00
      0.00000000000000E+00   0.00000000000000E+00   0.00000000000000E+00   0.00000000000000E+00   8.23060849011345E-19
     -1.75076025907442E-31   8.23060849011170E-19   6.79835803292983E-16   0.00000000000000E+00   0.00000000000000E+00
      0.00000000000000E+00   0.00000000000000E+00  -5.46797709073440E-19  -1.75443204629803E-31  -5.46797709073615E-19
      8.75489245871707E-16  -5.00000000000000E-01  -5.00000000000000E-01   0.00000000000000E+00   0.00000000000000E+00
      0.00000000000000E+00   0.00000000000000E+00   0.00000000000000E+00  -3.05080838794170E-16
      1.00000000000000E-03
      0.00000000000000E+00   0.00000000000000E+00   0.00000000000000E+00   0.00000000000000E+00  -6.18448716056617E-18
     -1.11825159555603E-21  -6.18560541216172E-18   6.79550599754589E-16   1.00000000000000E-03   1.00000000000000E-03
      0.00000000000000E+00   0.00000000000000E+00   5.54935320018603E-18   7.55520013740481E-22   5.55010872019977E-18
      8.75806876057691E-16  -5.00000000000000E-01  -5.00000000000000E-01   0.00000000000000E+00   0.00000000000000E+00
      0.00000000000000E+00   0.00000000000000E+00   0.00000000000000E+00  -3.05787722271680E-16
      2.17333333333333E-03
      0.00000000000000E+00   0.00000000000000E+00   0.00000000000000E+00   0.00000000000000E+00  -1.02761614843697E-17
     -2.45092830479804E-21  -1.02786124126745E-17   6.79218795157701E-16   2.17333333333333E-03   2.17333333333333E-03
      0.00000000000000E+00   0.00000000000000E+00   9.43829323819369E-18   1.63840054385489E-21   9.43993163873754E-18
      8.76182651668322E-16  -5.00000000000000E-01  -5.00000000000000E-01   0.00000000000000E+00   0.00000000000000E+00
      0.00000000000000E+00   0.00000000000000E+00   0.00000000000000E+00  -3.06610885845105E-16
      3.56568888888889E-03
      0.00000000000000E+00   0.00000000000000E+00   0.00000000000000E+00   0.00000000000000E+00  -1.86932798307196E-17
     -4.06097110823103E-21  -1.86973408018278E-17   6.78829059594917E-16   3.56568888888889E-03   3.56568888888889E-03
      0.00000000000000E+00   0.00000000000000E+00   1.55600189961324E-17   2.68063846293538E-21   1.55626996345954E-17
      8.76632922759837E-16  -5.00000000000000E-01  -5.00000000000000E-01   0.00000000000000E+00   0.00000000000000E+00
      0.00000000000000E+00   0.00000000000000E+00   0.00000000000000E+00  -3.07578895319880E-16
      5.21795081481481E-03
      0.00000000000000E+00   0.00000000000000E+00   0.00000000000000E+00   0.00000000000000E+00  -2.49433506637226E-17
     -6.01134951474936E-21  -2.49493620132373E-17   6.78372270703389E-16   5.21795081481481E-03   5.21795081481481E-03
      0.00000000000000E+00   0.00000000000000E+00   2.64301479104362E-17   3.90907896338753E-21   2.64340569893995E-17
      8.77173405629100E-16  -5.00000000000000E-01  -5.00000000000000E-01   0.00000000000000E+00   0.00000000000000E+00
      0.00000000000000E+00   0.00000000000000E+00   0.00000000000000E+00  -3.08715096259794E-16
      7.17863496691358E-03
      0.00000000000000E+00   0.00000000000000E+00   0.00000000000000E+00   0.00000000000000E+00  -3.27143092377590E-17
     -8.38091242637115E-21  -3.27226901501854E-17   6.77838326537384E-16   7.17863496691358E-03   7.17863496691358E-03
      0.00000000000000E+00   0.00000000000000E+00   3.33788709731092E-17   5.35395033776355E-21   3.33842249234469E-17
      8.77823507057729E-16  -5.00000000000000E-01  -5.00000000000000E-01   0.00000000000000E+00   0.00000000000000E+00
      0.00000000000000E+00   0.00000000000000E+00   0.00000000000000E+00  -3.10045630464393E-16
      9.50531349407078E-03
      0.00000000000000E+00   0.00000000000000E+00   0.00000000000000E+00   0.00000000000000E+00  -4.73776008153152E-17
     -1.12686199826192E-20  -4.73888694352978E-17   6.77216274137893E-16   9.50531349407078E-03   9.50531349407078E-03
      0.00000000000000E+00   0.00000000000000E+00   4.54963244569106E-17   7.04854923427493E-21   4.55033730061449E-17
      8.78607327649848E-16  -5.00000000000000E-01  -5.00000000000000E-01   0.00000000000000E+00   0.00000000000000E+00
      0.00000000000000E+00   0.00000000000000E+00   0.00000000000000E+00  -3.11599295640323E-16
      1.22663053462973E-02
      0.00000000000000E+00   0.00000000000000E+00   0.00000000000000E+00   0.00000000000000E+00  -5.97522517400603E-17
     -1.47986874126909E-20  -5.97670504274730E-17   6.76494594783543E-16   1.22663053462973E-02   1.22663053462973E-02
      0.00000000000000E+00   0.00000000000000E+00   6.01414752697172E-17   9.02832030662838E-21   6.01505035900238E-17
      8.79554978764944E-16  -5.00000000000000E-01  -5.00000000000000E-01   0.00000000000000E+00   0.00000000000000E+00
      0.00000000000000E+00   0.00000000000000E+00   0.00000000000000E+00  -3.13407102351501E-16
      1.55426823442728E-02
      0.00000000000000E+00   0.00000000000000E+00   0.00000000000000E+00   0.00000000000000E+00  -7.80247177651699E-17
     -1.91264908642116E-20  -7.80438442560341E-17   6.75661727363746E-16   1.55426823442728E-02   1.55426823442728E-02
      0.00000000000000E+00   0.00000000000000E+00   7.55068608398739E-17   1.13289254450012E-20   7.55181897653189E-17
      8.80704315653494E-16  -5.00000000000000E-01  -5.00000000000000E-01   0.00000000000000E+00   0.00000000000000E+00
      0.00000000000000E+00   0.00000000000000E+00   0.00000000000000E+00  -3.15501365963748E-16
      1.94306497152037E-02
      0.00000000000000E+00   0.00000000000000E+00   0.00000000000000E+00   0.00000000000000E+00  -9.69202032210587E-17
     -2.44446093134151E-20  -9.69446478303722E-17   6.74706938668955E-16   1.94306497152037E-02   1.94306497152037E-02
      0.00000000000000E+00   0.00000000000000E+00   9.41528807373561E-17   1.39827036639749E-20   9.41668634410200E-17
      8.82103213271674E-16  -5.00000000000000E-01  -5.00000000000000E-01   0.00000000000000E+00   0.00000000000000E+00
      0.00000000000000E+00   0.00000000000000E+00   0.00000000000000E+00  -3.17914118222509E-16
      2.40443709953751E-02
      0.00000000000000E+00   0.00000000000000E+00   0.00000000000000E+00   0.00000000000000E+00  -1.18350784976295E-16
     -3.09873481847370E-20  -1.18381772324479E-16   6.73621682706405E-16   2.40443709953751E-02   2.40443709953751E-02
      0.00000000000000E+00   0.00000000000000E+00   1.18356802795875E-16   1.70127313734859E-20   1.18373815527248E-16
      8.83812534818486E-16  -5.00000000000000E-01  -5.00000000000000E-01   0.00000000000000E+00   0.00000000000000E+00
      0.00000000000000E+00   0.00000000000000E+00   0.00000000000000E+00  -3.20674559503948E-16
      2.95193202478451E-02
      0.00000000000000E+00   0.00000000000000E+00   0.00000000000000E+00   0.00000000000000E+00  -1.49514247375134E-16
     -3.90302520899031E-20  -1.49553277627224E-16   6.72401595553179E-16   2.95193202478451E-02   2.95193202478451E-02
      0.00000000000000E+00   0.00000000000000E+00   1.47647092476589E-16   2.04235579650515E-20   1.47667516034554E-16
      8.85909924995720E-16  -5.00000000000000E-01  -5.00000000000000E-01   0.00000000000000E+00   0.00000000000000E+00
      0.00000000000000E+00   0.00000000000000E+00   0.00000000000000E+00  -3.23805271446362E-16
      3.60162600274429E-02
      0.00000000000000E+00   0.00000000000000E+00   0.00000000000000E+00   0.00000000000000E+00  -1.81814401395600E-16
     -4.88778216548950E-20  -1.81863279217255E-16   6.71049258266933E-16   3.60162600274429E-02   3.60162600274429E-02
      0.00000000000000E+00   0.00000000000000E+00   1.79354456518034E-16   2.41880237568280E-20   1.79378644541791E-16
      8.88494503660973E-16  -5.00000000000000E-01  -5.00000000000000E-01   0.00000000000000E+00   0.00000000000000E+00
      0.00000000000000E+00   0.00000000000000E+00   0.00000000000000E+00  -3.27316947807523E-16
      4.37259618992322E-02
      0.00000000000000E+00   0.00000000000000E+00   0.00000000000000E+00   0.00000000000000E+00  -2.17368567110784E-16
     -6.08285851450409E-20  -2.17429395695929E-16   6.69577666983289E-16   4.37259618992322E-02   4.37259618992322E-02
      0.00000000000000E+00   0.00000000000000E+00   2.14515676594804E-16   2.82307038864985E-20   2.14543907298690E-16
      8.91692262330151E-16  -5.00000000000000E-01  -5.00000000000000E-01   0.00000000000000E+00   0.00000000000000E+00
      0.00000000000000E+00   0.00000000000000E+00   0.00000000000000E+00  -3.31201810207830E-16
      5.28748081204222E-02
      0.00000000000000E+00   0.00000000000000E+00   0.00000000000000E+00   0.00000000000000E+00  -2.66503322193882E-16
     -7.51025967476023E-20  -2.66578424790629E-16   6.68014052884868E-16   5.28748081204222E-02   5.28748081204222E-02
      0.00000000000000E+00   0.00000000000000E+00   2.52392406734733E-16   3.24117298259370E-20   2.52424818464559E-16
      8.95661540150917E-16  -5.00000000000000E-01  -5.00000000000000E-01   0.00000000000000E+00   0.00000000000000E+00
      0.00000000000000E+00   0.00000000000000E+00   0.00000000000000E+00  -3.35426488301460E-16
      6.37314389695677E-02
      0.00000000000000E+00   0.00000000000000E+00   0.00000000000000E+00   0.00000000000000E+00  -3.04351391904221E-16
     -9.17215527467240E-20  -3.04443113456967E-16   6.66402828129540E-16   6.37314389695677E-02   6.37314389695677E-02
      0.00000000000000E+00   0.00000000000000E+00   3.04703005069848E-16   3.65197671299550E-20   3.04739524836978E-16
      9.00596881075121E-16  -5.00000000000000E-01  -5.00000000000000E-01   0.00000000000000E+00   0.00000000000000E+00
      0.00000000000000E+00   0.00000000000000E+00   0.00000000000000E+00  -3.39926915203267E-16
      7.64698858325651E-02
      0.00000000000000E+00   0.00000000000000E+00   0.00000000000000E+00   0.00000000000000E+00  -3.54632954382080E-16
     -1.10154176610911E-19  -3.54743108558691E-16   6.64821784217100E-16   7.64698858325651E-02   7.64698858325651E-02
      0.00000000000000E+00   0.00000000000000E+00   3.54180522027125E-16   4.02526440909833E-20   3.54220774671216E-16
      9.06658101147364E-16  -5.00000000000000E-01  -5.00000000000000E-01   0.00000000000000E+00   0.00000000000000E+00
      0.00000000000000E+00   0.00000000000000E+00   0.00000000000000E+00  -3.44560514777060E-16
      9.14163301518153E-02
      0.00000000000000E+00   0.00000000000000E+00   0.00000000000000E+00   0.00000000000000E+00  -4.02862763044742E-16
     -1.29611365777554E-19  -4.02992374410520E-16   6.63337648647526E-16   9.14163301518153E-02   9.14163301518153E-02
      0.00000000000000E+00   0.00000000000000E+00   4.03785439482437E-16   4.33707205766148E-20   4.03828810203013E-16
      9.14067573463737E-16  -5.00000000000000E-01  -5.00000000000000E-01   0.00000000000000E+00   0.00000000000000E+00
      0.00000000000000E+00   0.00000000000000E+00   0.00000000000000E+00  -3.49224802983361E-16
      1.08953491486402E-01
      0.00000000000000E+00   0.00000000000000E+00   0.00000000000000E+00   0.00000000000000E+00  -4.48313239815747E-16
     -1.48943109036704E-19  -4.48462182924784E-16   6.62013114447524E-16   1.08953491486402E-01   1.08953491486402E-01
      0.00000000000000E+00   0.00000000000000E+00   4.49480569087601E-16   4.57196480305739E-20   4.49526288735632E-16
      9.23048016087354E-16  -5.00000000000000E-01  -5.00000000000000E-01   0.00000000000000E+00   0.00000000000000E+00
      0.00000000000000E+00   0.00000000000000E+00   0.00000000000000E+00  -3.53832239277385E-16
      1.29530427452318E-01
      0.00000000000000E+00   0.00000000000000E+00   0.00000000000000E+00   0.00000000000000E+00  -4.86710013993053E-16
     -1.66901303444468E-19  -4.86876915296497E-16   6.60892250919637E-16   1.29530427452318E-01   1.29530427452318E-01
      0.00000000000000E+00   0.00000000000000E+00   4.86978869593119E-16   4.72895131230783E-20   4.87026159106242E-16
      9.33797400255163E-16  -5.00000000000000E-01  -5.00000000000000E-01   0.00000000000000E+00   0.00000000000000E+00
      0.00000000000000E+00   0.00000000000000E+00   0.00000000000000E+00  -3.58340828040054E-16
      1.53674032318992E-01
      0.00000000000000E+00   0.00000000000000E+00   0.00000000000000E+00   0.00000000000000E+00  -5.21781566090931E-16
     -1.82520418521685E-19  -5.21964086509453E-16   6.59989684664703E-16   1.53674032318992E-01   1.53674032318992E-01
      0.00000000000000E+00   0.00000000000000E+00   5.23874049807354E-16   4.82141769371750E-20   5.23922263984291E-16
      9.46463199194200E-16  -5.00000000000000E-01  -5.00000000000000E-01   0.00000000000000E+00   0.00000000000000E+00
      0.00000000000000E+00   0.00000000000000E+00   0.00000000000000E+00  -3.62776747184717E-16
      1.82002528695889E-01
      0.00000000000000E+00   0.00000000000000E+00   0.00000000000000E+00   0.00000000000000E+00  -5.49449559810886E-16
     -1.95396367682611E-19  -5.49644956178568E-16   6.59289647968795E-16   1.82002528695889E-01   1.82002528695889E-01
      0.00000000000000E+00   0.00000000000000E+00   5.49192529644163E-16   4.87035209858418E-20   5.49241233165149E-16
      9.61126846247268E-16  -5.00000000000000E-01  -5.00000000000000E-01   0.00000000000000E+00   0.00000000000000E+00
      0.00000000000000E+00   0.00000000000000E+00   0.00000000000000E+00  -3.67236535013911E-16
      2.15241297778115E-01
      0.00000000000000E+00   0.00000000000000E+00   0.00000000000000E+00   0.00000000000000E+00  -5.71730638316937E-16
     -2.05653425927034E-19  -5.71936291742864E-16   6.58757516305786E-16   2.15241297778115E-01   2.15241297778115E-01
      0.00000000000000E+00   0.00000000000000E+00   5.72435896746035E-16   4.89557360017491E-20   5.72484852482036E-16
      9.77820234126239E-16  -5.00000000000000E-01  -5.00000000000000E-01   0.00000000000000E+00   0.00000000000000E+00
      0.00000000000000E+00   0.00000000000000E+00   0.00000000000000E+00  -3.71863291776096E-16
      2.54241453501261E-01
      0.00000000000000E+00   0.00000000000000E+00   0.00000000000000E+00   0.00000000000000E+00  -5.85670285859335E-16
     -2.13577476745361E-19  -5.85883863336080E-16   6.58360675115536E-16   2.54241453501261E-01   2.54241453501261E-01
      0.00000000000000E+00   0.00000000000000E+00   5.86795782116416E-16   4.91059322878738E-20   5.86844888048704E-16
      9.96603331720799E-16  -5.00000000000000E-01  -5.00000000000000E-01   0.00000000000000E+00   0.00000000000000E+00
      0.00000000000000E+00   0.00000000000000E+00   0.00000000000000E+00  -3.76802504154631E-16
      3.00001636216419E-01
      0.00000000000000E+00   0.00000000000000E+00   0.00000000000000E+00   0.00000000000000E+00  -5.96902552658543E-16
     -2.19372835012678E-19  -5.97121925493556E-16   6.58077827704224E-16   3.00001636216419E-01   3.00001636216419E-01
      0.00000000000000E+00   0.00000000000000E+00   6.01644338421059E-16   4.92247781720383E-20   6.01693563199231E-16
      1.01766924104636E-15  -5.00000000000000E-01  -5.00000000000000E-01   0.00000000000000E+00   0.00000000000000E+00
      0.00000000000000E+00   0.00000000000000E+00   0.00000000000000E+00  -3.82176984485770E-16
      3.53083448166001E-01
      0.00000000000000E+00   0.00000000000000E+00   0.00000000000000E+00   0.00000000000000E+00  -6.07324680323154E-16
     -2.23487952982758E-19  -6.07548168276137E-16   6.57880599039437E-16   3.53083448166001E-01   3.53083448166001E-01
      0.00000000000000E+00   0.00000000000000E+00   6.03950881212110E-16   4.93410472978095E-20   6.04000222259408E-16
      1.04107477420252E-15  -5.00000000000000E-01  -5.00000000000000E-01   0.00000000000000E+00   0.00000000000000E+00
      0.00000000000000E+00   0.00000000000000E+00   0.00000000000000E+00  -3.88042660667203E-16
      4.14658350027517E-01
      0.00000000000000E+00   0.00000000000000E+00   0.00000000000000E+00   0.00000000000000E+00  -6.15118318574112E-16
     -2.26936990277714E-19  -6.15345255564390E-16   6.57717525177111E-16   4.14658350027517E-01   4.14658350027517E-01
      0.00000000000000E+00   0.00000000000000E+00   6.17700532087303E-16   4.94658954372216E-20   6.17749997982741E-16
      1.06703752050379E-15  -5.00000000000000E-01  -5.00000000000000E-01   0.00000000000000E+00   0.00000000000000E+00
      0.00000000000000E+00   0.00000000000000E+00   0.00000000000000E+00  -3.94478848860446E-16
      4.86085236186876E-01
      0.00000000000000E+00   0.00000000000000E+00   0.00000000000000E+00   0.00000000000000E+00  -6.18480615207615E-16
     -2.29888275631011E-19  -6.18710503483246E-16   6.57579552968323E-16   4.86085236186876E-01   4.86085236186876E-01
      0.00000000000000E+00   0.00000000000000E+00   6.22781382107564E-16   4.96035578421055E-20   6.22830985665406E-16
      1.09544431352172E-15  -5.00000000000000E-01  -5.00000000000000E-01   0.00000000000000E+00   0.00000000000000E+00
      0.00000000000000E+00   0.00000000000000E+00   0.00000000000000E+00  -4.01277495773740E-16
      5.68940424131732E-01
      0.00000000000000E+00   0.00000000000000E+00   0.00000000000000E+00   0.00000000000000E+00  -6.22477874367262E-16
     -2.31734026819270E-19  -6.22709608394081E-16   6.57493958611079E-16   5.68940424131732E-01   5.68940424131732E-01
      0.00000000000000E+00   0.00000000000000E+00   6.21374188256405E-16   4.97561878623601E-20   6.21423944444267E-16
      1.12555857086749E-15  -5.00000000000000E-01  -5.00000000000000E-01   0.00000000000000E+00   0.00000000000000E+00
      0.00000000000000E+00   0.00000000000000E+00   0.00000000000000E+00  -4.07774466383542E-16
      6.63947706308500E-01
      0.00000000000000E+00   0.00000000000000E+00   0.00000000000000E+00   0.00000000000000E+00  -6.33148969030612E-16
     -2.35891174218267E-19  -6.33384860204830E-16   6.57303266446900E-16   6.63947706308500E-01   6.63947706308500E-01
      0.00000000000000E+00   0.00000000000000E+00   6.31939526055695E-16   4.99224376125585E-20   6.31989448493308E-16
      1.15665252387648E-15  -5.00000000000000E-01  -5.00000000000000E-01   0.00000000000000E+00   0.00000000000000E+00
      0.00000000000000E+00   0.00000000000000E+00   0.00000000000000E+00  -4.13810465747997E-16
      7.72889389871194E-01
      0.00000000000000E+00   0.00000000000000E+00   0.00000000000000E+00   0.00000000000000E+00  -6.74144434101375E-16
     -2.58660943331569E-19  -6.74403095044707E-16   6.56305456162106E-16   7.72889389871194E-01   7.72889389871194E-01
      0.00000000000000E+00   0.00000000000000E+00   6.72413599826796E-16   5.00995988606433E-20   6.72463699425657E-16
      1.19007939125668E-15  -5.00000000000000E-01  -5.00000000000000E-01   0.00000000000000E+00   0.00000000000000E+00
      0.00000000000000E+00   0.00000000000000E+00   0.00000000000000E+00  -4.21531678828413E-16
      8.93451519680576E-01
      0.00000000000000E+00   0.00000000000000E+00   0.00000000000000E+00   0.00000000000000E+00  -7.85613848970953E-16
     -3.20337474292895E-19  -7.85934186445246E-16   6.53930037890716E-16   8.93451519680576E-01   8.93451519680576E-01
      0.00000000000000E+00   0.00000000000000E+00   7.87734552350017E-16   5.02794686091118E-20   7.87784831818626E-16
      1.22584604442262E-15  -5.00000000000000E-01  -5.00000000000000E-01   0.00000000000000E+00   0.00000000000000E+00
      0.00000000000000E+00   0.00000000000000E+00   0.00000000000000E+00  -4.32534456953007E-16
      1.00000000000000E+00
      0.00000000000000E+00   0.00000000000000E+00   0.00000000000000E+00   0.00000000000000E+00  -8.75878263424590E-16
     -3.74975641547529E-19  -8.76253239066137E-16   6.52132182809195E-16   1.00000000000000E+00   1.00000000000000E+00
      0.00000000000000E+00   0.00000000000000E+00   8.76183603365245E-16   5.04296088571816E-20   8.76234032974102E-16
      1.25737296347877E-15  -5.00000000000000E-01  -5.00000000000000E-01   0.00000000000000E+00   0.00000000000000E+00
      0.00000000000000E+00   0.00000000000000E+00   0.00000000000000E+00  -4.41734114715737E-16
      0.00000000000000E+00
      0.00000000000000E+00   0.00000000000000E+00   0.00000000000000E+00   0.00000000000000E+00  -8.77012550820340E-16
     -3.74975955192183E-19  -8.77387526775533E-16   6.52132173160268E-16   1.00000000000000E+00   1.00000000000000E+00
      0.00000000000000E+00   0.00000000000000E+00   8.78451478440208E-16   5.04296088301113E-20   8.78501908049038E-16
      1.25737295866867E-15  -5.00000000000000E-01  -5.00000000000000E-01   0.00000000000000E+00   0.00000000000000E+00
      0.00000000000000E+00   0.00000000000000E+00   0.00000000000000E+00  -4.41734133571436E-16
      1.00000000000000E-03
      0.00000000000000E+00   0.00000000000000E+00   0.00000000000000E+00   0.00000000000000E+00  -8.74665711203510E-16
     -3.74150863816920E-19  -8.75039862067327E-16   6.52132574976786E-16   1.00000000000000E+00   1.00000000000000E+00
      0.00000000000000E+00   0.00000000000000E+00   8.77418034587874E-16   5.04296657122124E-20   8.77468464253586E-16
      1.25727793342548E-15  -4.98000000000000E-01  -4.98000000000000E-01   0.00000000000000E+00   0.00000000000000E+00
      0.00000000000000E+00   0.00000000000000E+00   0.00000000000000E+00  -4.39591031870910E-16
      2.17333333333333E-03
      0.00000000000000E+00   0.00000000000000E+00   0.00000000000000E+00   0.00000000000000E+00  -8.74214105393278E-16
     -3.73213221819222E-19  -8.74587318615098E-16   6.52132053758196E-16   1.00000000000000E+00   1.00000000000000E+00
      0.00000000000000E+00   0.00000000000000E+00   8.75868965745255E-16   5.04297299217578E-20   8.75919395475177E-16
      1.25716567608536E-15  -4.95653333333333E-01  -4.95653333333333E-01   0.00000000000000E+00   0.00000000000000E+00
      0.00000000000000E+00   0.00000000000000E+00   0.00000000000000E+00  -4.37080441437259E-16
      3.56568888888889E-03
      0.00000000000000E+00   0.00000000000000E+00   0.00000000000000E+00   0.00000000000000E+00  -8.72521557718676E-16
     -3.72140060153714E-19  -8.72893697778830E-16   6.52130133465678E-16   1.00000000000000E+00   1.00000000000000E+00
      0.00000000000000E+00   0.00000000000000E+00   8.68753047132910E-16   5.04298028228348E-20   8.68803476935733E-16
      1.25703144774431E-15  -4.92868622222222E-01  -4.92868622222222E-01   0.00000000000000E+00   0.00000000000000E+00
      0.00000000000000E+00   0.00000000000000E+00   0.00000000000000E+00  -4.34106586521561E-16
      5.21795081481481E-03
      0.00000000000000E+00   0.00000000000000E+00   0.00000000000000E+00   0.00000000000000E+00  -8.70429691491225E-16
     -3.70920804028375E-19  -8.70800612295253E-16   6.52126050985708E-16   1.00000000000000E+00   1.00000000000000E+00
      0.00000000000000E+00   0.00000000000000E+00   8.72769796732765E-16   5.04298847820371E-20   8.72820226617547E-16
      1.25687075668334E-15  -4.89564098370370E-01  -4.89564098370370E-01   0.00000000000000E+00   0.00000000000000E+00
      0.00000000000000E+00   0.00000000000000E+00   0.00000000000000E+00  -4.30585083751633E-16
      7.17863496691358E-03
      0.00000000000000E+00   0.00000000000000E+00   0.00000000000000E+00   0.00000000000000E+00  -8.67931626783532E-16
     -3.69547277649779E-19  -8.68301174061182E-16   6.52118738611993E-16   1.00000000000000E+00   1.00000000000000E+00
      0.00000000000000E+00   0.00000000000000E+00   8.69879705918104E-16   5.04299758464081E-20   8.69930135893951E-16
      1.25667814194977E-15  -4.85642730066173E-01  -4.85642730066173E-01   0.00000000000000E+00   0.00000000000000E+00
      0.00000000000000E+00   0.00000000000000E+00   0.00000000000000E+00  -4.26416534433117E-16
      9.50531349407078E-03
      0.00000000000000E+00   0.00000000000000E+00   0.00000000000000E+00   0.00000000000000E+00  -8.63889738278486E-16
     -3.68015400967184E-19  -8.64257753679453E-16   6.52106713821879E-16   1.00000000000000E+00   1.00000000000000E+00
      0.00000000000000E+00   0.00000000000000E+00   8.65958597143822E-16   5.04300755650057E-20   8.66009027219387E-16
      1.25644695099082E-15  -4.80989373011858E-01  -4.80989373011858E-01   0.00000000000000E+00   0.00000000000000E+00
      0.00000000000000E+00   0.00000000000000E+00   0.00000000000000E+00  -4.21483970941014E-16
      1.22663053462973E-02
      0.00000000000000E+00   0.00000000000000E+00   0.00000000000000E+00   0.00000000000000E+00  -8.63124049190434E-16
     -3.66327316669040E-19  -8.63490376507103E-16   6.52087937331451E-16   1.00000000000000E+00   1.00000000000000E+00
      0.00000000000000E+00   0.00000000000000E+00   8.62346657030278E-16   5.04301827613404E-20   8.62397087213039E-16
      1.25616906837974E-15  -4.75467389307405E-01  -4.75467389307405E-01   0.00000000000000E+00   0.00000000000000E+00
      0.00000000000000E+00   0.00000000000000E+00   0.00000000000000E+00  -4.15649887502541E-16
      1.55426823442728E-02
      0.00000000000000E+00   0.00000000000000E+00   0.00000000000000E+00   0.00000000000000E+00  -8.59689306323799E-16
     -3.64493651874295E-19  -8.60053799975673E-16   6.52059641682823E-16   1.00000000000000E+00   1.00000000000000E+00
      0.00000000000000E+00   0.00000000000000E+00   8.60693397627882E-16   5.04302952790508E-20   8.60743827923161E-16
      1.25583459286147E-15  -4.68914635311454E-01  -4.68914635311454E-01   0.00000000000000E+00   0.00000000000000E+00
      0.00000000000000E+00   0.00000000000000E+00   0.00000000000000E+00  -4.08752763928757E-16
      1.94306497152037E-02
      0.00000000000000E+00   0.00000000000000E+00   0.00000000000000E+00   0.00000000000000E+00  -8.58987334468868E-16
     -3.62535800773586E-19  -8.59349870269641E-16   6.52018124202968E-16   1.00000000000000E+00   1.00000000000000E+00
      0.00000000000000E+00   0.00000000000000E+00   8.57700416629578E-16   5.04304097078870E-20   8.57750847039286E-16
      1.25543145787761E-15  -4.61138700569592E-01  -4.61138700569592E-01   0.00000000000000E+00   0.00000000000000E+00
      0.00000000000000E+00   0.00000000000000E+00   0.00000000000000E+00  -4.00602983659118E-16
      2.40443709953751E-02
      0.00000000000000E+00   0.00000000000000E+00   0.00000000000000E+00   0.00000000000000E+00  -8.53959486034911E-16
     -3.60487680113597E-19  -8.54319973715024E-16   6.51958507626030E-16   1.00000000000000E+00   1.00000000000000E+00
      0.00000000000000E+00   0.00000000000000E+00   8.56460554578333E-16   5.04305211371138E-20   8.56510985099470E-16
      1.25494499979643E-15  -4.51911258009250E-01  -4.51911258009250E-01   0.00000000000000E+00   0.00000000000000E+00
      0.00000000000000E+00   0.00000000000000E+00   0.00000000000000E+00  -3.90977996506771E-16
      2.95193202478451E-02
      0.00000000000000E+00   0.00000000000000E+00   0.00000000000000E+00   0.00000000000000E+00  -8.51444630624230E-16
     -3.58396371699785E-19  -8.51803026995930E-16   6.51874466341071E-16   1.00000000000000E+00   1.00000000000000E+00
      0.00000000000000E+00   0.00000000000000E+00   8.48211998967413E-16   5.04306229906843E-20   8.48262429590404E-16
      1.25435748277050E-15  -4.40961359504310E-01  -4.40961359504310E-01   0.00000000000000E+00   0.00000000000000E+00
      0.00000000000000E+00   0.00000000000000E+00   0.00000000000000E+00  -3.79616546238256E-16
      3.60162600274429E-02
      0.00000000000000E+00   0.00000000000000E+00   0.00000000000000E+00   0.00000000000000E+00  -8.50073136674056E-16
     -3.56320221080844E-19  -8.50429456895137E-16   6.51757931827434E-16   1.00000000000000E+00   1.00000000000000E+00
      0.00000000000000E+00   0.00000000000000E+00   8.46871767095111E-16   5.04307070796237E-20   8.46922197802191E-16
      1.25364760678117E-15  -4.27967479945114E-01  -4.27967479945114E-01   0.00000000000000E+00   0.00000000000000E+00
      0.00000000000000E+00   0.00000000000000E+00   0.00000000000000E+00  -3.66211716480086E-16
      4.37259618992322E-02
      0.00000000000000E+00   0.00000000000000E+00   0.00000000000000E+00   0.00000000000000E+00  -8.47615092244208E-16
     -3.54324534991829E-19  -8.47969416779200E-16   6.51598720235653E-16   1.00000000000000E+00   1.00000000000000E+00
      0.00000000000000E+00   0.00000000000000E+00   8.42544398769833E-16   5.04307638714040E-20   8.42594829533705E-16
      1.25279000029428E-15  -4.12548076201536E-01  -4.12548076201536E-01   0.00000000000000E+00   0.00000000000000E+00
      0.00000000000000E+00   0.00000000000000E+00   0.00000000000000E+00  -3.50402684876984E-16
      5.27720120954650E-02
      0.00000000000000E+00   0.00000000000000E+00   0.00000000000000E+00   0.00000000000000E+00  -8.45004782704597E-16
     -3.52487176289085E-19  -8.45357269880886E-16   6.51386733821345E-16   1.00000000000000E+00   1.00000000000000E+00