DF-ISE text

Info {
  version   = 1.0
  type      = xyplot
  datasets  = [
    "time"
    "S OuterVoltage" "S InnerVoltage" "S QuasiFermiPotential" "S DisplacementCurrent" "S eCurrent"
    "S hCurrent" "S TotalCurrent" "S Charge" "D OuterVoltage" "D InnerVoltage"
    "D QuasiFermiPotential" "D DisplacementCurrent" "D eCurrent" "D hCurrent" "D TotalCurrent"
    "D Charge" "G OuterVoltage" "G InnerVoltage" "G QuasiFermiPotential" "G DisplacementCurrent"
    "G eCurrent" "G hCurrent" "G TotalCurrent" "G Charge" ]
  functions = [
    Time
    OuterVoltage InnerVoltage QuasiFermiPotential DisplacementCurrent eCurrent
    hCurrent TotalCurrent Charge OuterVoltage InnerVoltage
    QuasiFermiPotential DisplacementCurrent eCurrent hCurrent TotalCurrent
    Charge OuterVoltage InnerVoltage QuasiFermiPotential DisplacementCurrent
    eCurrent hCurrent TotalCurrent Charge ]
}

Data {
      0.00000000000000E+00
      0.00000000000000E+00   0.00000000000000E+00   0.00000000000000E+00   0.00000000000000E+00   5.16109121298326E-23
     -2.00474393277778E-34   5.16109121296321E-23   3.74458481987711E-16   0.00000000000000E+00   0.00000000000000E+00
      0.00000000000000E+00   0.00000000000000E+00   3.17204951062102E-23  -1.11064265045936E-34   3.17204951060991E-23
      4.23781228288688E-16  -5.00000000000000E-01  -5.00000000000000E-01   0.00000000000000E+00   0.00000000000000E+00
      0.00000000000000E+00   0.00000000000000E+00   0.00000000000000E+00  -2.90313016542469E-16
      0.00000000000000E+00
      0.00000000000000E+00   0.00000000000000E+00   0.00000000000000E+00   0.00000000000000E+00   4.45296552082635E-19
      1.53239431627304E-33   4.45296552082636E-19   3.74458481986809E-16   0.00000000000000E+00   0.00000000000000E+00
      0.00000000000000E+00   0.00000000000000E+00  -7.32214742759285E-19   1.42782280085381E-33  -7.32214742759283E-19
      4.23781228287513E-16  -5.00000000000000E-01  -5.00000000000000E-01   0.00000000000000E+00   0.00000000000000E+00
      0.00000000000000E+00   0.00000000000000E+00   0.00000000000000E+00  -2.90313016542487E-16
      1.00000000000000E-03
      0.00000000000000E+00   0.00000000000000E+00   0.00000000000000E+00   0.00000000000000E+00  -9.71280112094299E-19
     -2.68039141363304E-21  -9.73960503507932E-19   3.74268454932747E-16   1.00000000000000E-03   1.00000000000000E-03
      0.00000000000000E+00   0.00000000000000E+00   1.46804412960169E-19   4.57025484092487E-23   1.46850115508578E-19
      4.23838595260406E-16  -5.00000000000000E-01  -5.00000000000000E-01   0.00000000000000E+00   0.00000000000000E+00
      0.00000000000000E+00   0.00000000000000E+00   0.00000000000000E+00  -2.91198988703968E-16
      2.17333333333333E-03
      0.00000000000000E+00   0.00000000000000E+00   0.00000000000000E+00   0.00000000000000E+00  -2.87125294822540E-17
     -5.95777910710375E-21  -2.87184872613611E-17   3.74045152007279E-16   2.17333333333333E-03   2.17333333333333E-03
      0.00000000000000E+00   0.00000000000000E+00  -7.58747990058840E-20   9.86768115925103E-23  -7.57761221942915E-20
      4.23905741683227E-16  -5.00000000000000E-01  -5.00000000000000E-01   0.00000000000000E+00   0.00000000000000E+00
      0.00000000000000E+00   0.00000000000000E+00   0.00000000000000E+00  -2.92240069870934E-16
      3.58133333333333E-03
      0.00000000000000E+00   0.00000000000000E+00   0.00000000000000E+00   0.00000000000000E+00  -1.13646167710700E-18
     -1.00881313434595E-20  -1.14654980845046E-18   3.73776710841677E-16   3.58133333333333E-03   3.58133333333333E-03
      0.00000000000000E+00   0.00000000000000E+00   1.47515669526807E-19   1.61351532509361E-22   1.47677021059317E-19
      4.23986086404034E-16  -5.00000000000000E-01  -5.00000000000000E-01   0.00000000000000E+00   0.00000000000000E+00
      0.00000000000000E+00   0.00000000000000E+00   0.00000000000000E+00  -2.93491541073448E-16
      5.25216000000000E-03
      0.00000000000000E+00   0.00000000000000E+00   0.00000000000000E+00   0.00000000000000E+00  -6.26174962183874E-19
     -1.52844492479638E-20  -6.41459411431838E-19   3.73457495487612E-16   5.25216000000000E-03   5.25216000000000E-03
      0.00000000000000E+00   0.00000000000000E+00   1.02631514177165E-18   2.34574459017464E-22   1.02654971623067E-18
      4.24081111165297E-16  -5.00000000000000E-01  -5.00000000000000E-01   0.00000000000000E+00   0.00000000000000E+00
      0.00000000000000E+00   0.00000000000000E+00   0.00000000000000E+00  -2.94979640709734E-16
      7.23487431111111E-03
      0.00000000000000E+00   0.00000000000000E+00   0.00000000000000E+00   0.00000000000000E+00  -4.15763575095804E-19
     -2.18936440442173E-20  -4.37657219140022E-19   3.73077770536697E-16   7.23487431111111E-03   7.23487431111111E-03
      0.00000000000000E+00   0.00000000000000E+00   5.14030156656444E-19   3.19978986705297E-22   5.14350135643150E-19
      4.24193438225219E-16  -5.00000000000000E-01  -5.00000000000000E-01   0.00000000000000E+00   0.00000000000000E+00
      0.00000000000000E+00   0.00000000000000E+00   0.00000000000000E+00  -2.96749696512510E-16
      9.58769529362963E-03
      0.00000000000000E+00   0.00000000000000E+00   0.00000000000000E+00   0.00000000000000E+00  -1.62286805418773E-18
     -3.04095653949399E-20  -1.65327761958267E-18   3.72625888001894E-16   9.58769529362963E-03   9.58769529362963E-03
      0.00000000000000E+00   0.00000000000000E+00   2.78308738605069E-18   4.19465297507362E-22   2.78350685134819E-18
      4.24326139768973E-16  -5.00000000000000E-01  -5.00000000000000E-01   0.00000000000000E+00   0.00000000000000E+00
      0.00000000000000E+00   0.00000000000000E+00   0.00000000000000E+00  -2.98855915817030E-16
      1.23797095262183E-02
      0.00000000000000E+00   0.00000000000000E+00   0.00000000000000E+00   0.00000000000000E+00  -3.05755395596490E-18
     -4.15524362815208E-20  -3.09910639224643E-18   3.72087896008156E-16   1.23797095262183E-02   1.23797095262183E-02
      0.00000000000000E+00   0.00000000000000E+00   2.49193787845928E-18   5.35276328439707E-22   2.49247315478772E-18
      4.24482809975115E-16  -5.00000000000000E-01  -5.00000000000000E-01   0.00000000000000E+00   0.00000000000000E+00
      0.00000000000000E+00   0.00000000000000E+00   0.00000000000000E+00  -3.01363185606099E-16
      1.56928997488901E-02
      0.00000000000000E+00   0.00000000000000E+00   0.00000000000000E+00   0.00000000000000E+00  -3.83442470480191E-18
     -5.64012859747313E-20  -3.89082599077664E-18   3.71447064133366E-16   1.56928997488901E-02   1.56928997488901E-02
      0.00000000000000E+00   0.00000000000000E+00   3.87764527998151E-18   6.70138206885968E-22   3.87831541818839E-18
      4.24667649430336E-16  -5.00000000000000E-01  -5.00000000000000E-01   0.00000000000000E+00   0.00000000000000E+00
      0.00000000000000E+00   0.00000000000000E+00   0.00000000000000E+00  -3.04349244264103E-16
      1.96245521464607E-02
      0.00000000000000E+00   0.00000000000000E+00   0.00000000000000E+00   0.00000000000000E+00  -3.93513283139408E-18
     -7.66220772835961E-20  -4.01175490867767E-18   3.70683306166813E-16   1.96245521464607E-02   1.96245521464607E-02
      0.00000000000000E+00   0.00000000000000E+00   2.93011430023177E-18   8.27501269565624E-22   2.93094180150134E-18
      4.24885564751801E-16  -5.00000000000000E-01  -5.00000000000000E-01   0.00000000000000E+00   0.00000000000000E+00
      0.00000000000000E+00   0.00000000000000E+00   0.00000000000000E+00  -3.07907301732421E-16
      2.42901129915778E-02
      0.00000000000000E+00   0.00000000000000E+00   0.00000000000000E+00   0.00000000000000E+00  -5.10178058920515E-18
     -1.04875133360919E-19  -5.20665572256607E-18   3.69772477480949E-16   2.42901129915778E-02   2.42901129915778E-02
      0.00000000000000E+00   0.00000000000000E+00   5.70682468599927E-18   1.01195681169928E-21   5.70783664281096E-18
      4.25142289143812E-16  -5.00000000000000E-01  -5.00000000000000E-01   0.00000000000000E+00   0.00000000000000E+00
      0.00000000000000E+00   0.00000000000000E+00   0.00000000000000E+00  -3.12149191380485E-16
      2.98265785277835E-02
      0.00000000000000E+00   0.00000000000000E+00   0.00000000000000E+00   0.00000000000000E+00  -5.41418180711439E-18
     -1.45572644038776E-19  -5.55975445115317E-18   3.68685518809104E-16   2.98265785277835E-02   2.98265785277835E-02
      0.00000000000000E+00   0.00000000000000E+00   6.19352735629195E-18   1.22995310607783E-21   6.19475730939803E-18
      4.25444533578377E-16  -5.00000000000000E-01  -5.00000000000000E-01   0.00000000000000E+00   0.00000000000000E+00
      0.00000000000000E+00   0.00000000000000E+00   0.00000000000000E+00  -3.17209143568085E-16
      3.63965176307475E-02
      0.00000000000000E+00   0.00000000000000E+00   0.00000000000000E+00   0.00000000000000E+00  -7.68480408429329E-18
     -2.06351624874485E-19  -7.89115570916778E-18   3.67387412719382E-16   3.63965176307475E-02   3.63965176307475E-02
      0.00000000000000E+00   0.00000000000000E+00   6.35517745360424E-18   1.49103543737374E-21   6.35666848904162E-18
      4.25800186909647E-16  -5.00000000000000E-01  -5.00000000000000E-01   0.00000000000000E+00   0.00000000000000E+00
      0.00000000000000E+00   0.00000000000000E+00   0.00000000000000E+00  -3.23248263306093E-16
      4.41928453662648E-02
      0.00000000000000E+00   0.00000000000000E+00   0.00000000000000E+00   0.00000000000000E+00  -8.53471809827831E-18
     -3.01085084452505E-19  -8.83580318273081E-18   3.65835914722793E-16   4.41928453662648E-02   4.41928453662648E-02
      0.00000000000000E+00   0.00000000000000E+00   9.40172476821255E-18   1.81003734171168E-21   9.40353480555426E-18
      4.26218601019726E-16  -5.00000000000000E-01  -5.00000000000000E-01   0.00000000000000E+00   0.00000000000000E+00
      0.00000000000000E+00   0.00000000000000E+00   0.00000000000000E+00  -3.30459755402779E-16
      5.34444876124120E-02
      0.00000000000000E+00   0.00000000000000E+00   0.00000000000000E+00   0.00000000000000E+00  -1.14925368328837E-17
     -4.56391757509800E-19  -1.19489285903935E-17   3.63980023886701E-16   5.34444876124120E-02   5.34444876124120E-02
      0.00000000000000E+00   0.00000000000000E+00   1.21594709716559E-17   2.21107835187529E-21   1.21616820500078E-17
      4.26711035302684E-16  -5.00000000000000E-01  -5.00000000000000E-01   0.00000000000000E+00   0.00000000000000E+00
      0.00000000000000E+00   0.00000000000000E+00   0.00000000000000E+00  -3.39074823309867E-16
      6.42997478478914E-02
      0.00000000000000E+00   0.00000000000000E+00   0.00000000000000E+00   0.00000000000000E+00  -1.41521047811673E-17
     -7.22916471875243E-19  -1.48750212530426E-17   3.61783275781181E-16   6.42997478478914E-02   6.42997478478914E-02
      0.00000000000000E+00   0.00000000000000E+00   1.56009527056892E-17   2.72904461462671E-21   1.56036817503038E-17
      4.27284924708894E-16  -5.00000000000000E-01  -5.00000000000000E-01   0.00000000000000E+00   0.00000000000000E+00
      0.00000000000000E+00   0.00000000000000E+00   0.00000000000000E+00  -3.49252759945411E-16
      7.70365865241872E-02
      0.00000000000000E+00   0.00000000000000E+00   0.00000000000000E+00   0.00000000000000E+00  -1.84971302379147E-17
     -1.21061754159019E-18  -1.97077477795049E-17   3.59181568923116E-16   7.70365865241872E-02   7.70365865241872E-02
      0.00000000000000E+00   0.00000000000000E+00   2.00696734177629E-17   3.43187034587822E-21   2.00731052881088E-17
      4.27956071136652E-16  -5.00000000000000E-01  -5.00000000000000E-01   0.00000000000000E+00   0.00000000000000E+00
      0.00000000000000E+00   0.00000000000000E+00   0.00000000000000E+00  -3.61273719948978E-16
      9.19811439043743E-02
      0.00000000000000E+00   0.00000000000000E+00   0.00000000000000E+00   0.00000000000000E+00  -2.67625182709091E-17
     -2.17103582813328E-18  -2.89335540990424E-17   3.56100052272755E-16   9.19811439043743E-02   9.19811439043743E-02
      0.00000000000000E+00   0.00000000000000E+00   2.77608036573560E-17   4.44725454253441E-21   2.77652509118986E-17
      4.28746647925923E-16  -5.00000000000000E-01  -5.00000000000000E-01   0.00000000000000E+00   0.00000000000000E+00
      0.00000000000000E+00   0.00000000000000E+00   0.00000000000000E+00  -3.75455143547294E-16
      1.09516091230460E-01
      0.00000000000000E+00   0.00000000000000E+00   0.00000000000000E+00   0.00000000000000E+00  -3.97350654623311E-17
     -4.22386300443725E-18  -4.39589284667683E-17   3.52455621125710E-16   1.09516091230460E-01   1.09516091230460E-01
      0.00000000000000E+00   0.00000000000000E+00   4.29165799038067E-17   6.03321787109905E-21   4.29226131216778E-17
      4.29691827646576E-16  -5.00000000000000E-01  -5.00000000000000E-01   0.00000000000000E+00   0.00000000000000E+00
      0.00000000000000E+00   0.00000000000000E+00   0.00000000000000E+00  -3.92133360683516E-16
      1.30090429426402E-01
      0.00000000000000E+00   0.00000000000000E+00   0.00000000000000E+00   0.00000000000000E+00  -6.22676836090921E-17
     -9.00466125439216E-18  -7.12723448634843E-17   3.48171137279921E-16   1.30090429426402E-01   1.30090429426402E-01
      0.00000000000000E+00   0.00000000000000E+00   7.08738055519594E-17   8.75069346354100E-21   7.08825562454229E-17
      4.30857266153593E-16  -5.00000000000000E-01  -5.00000000000000E-01   0.00000000000000E+00   0.00000000000000E+00
      0.00000000000000E+00   0.00000000000000E+00   0.00000000000000E+00  -4.11592734605274E-16
      1.54230986242972E-01
      0.00000000000000E+00   0.00000000000000E+00   0.00000000000000E+00   0.00000000000000E+00  -1.08728153047256E-16
     -2.09826902712970E-17  -1.29710843318553E-16   3.43229682487783E-16   1.54230986242972E-01   1.54230986242972E-01
      0.00000000000000E+00   0.00000000000000E+00   1.29799381540911E-16   1.38688489879912E-20   1.29813250389899E-16
      4.32388885388190E-16  -5.00000000000000E-01  -5.00000000000000E-01   0.00000000000000E+00   0.00000000000000E+00
      0.00000000000000E+00   0.00000000000000E+00   0.00000000000000E+00  -4.33828679443456E-16
      1.82555906241082E-01
      0.00000000000000E+00   0.00000000000000E+00   0.00000000000000E+00   0.00000000000000E+00  -2.12820690006499E-16
     -5.12732442583698E-17  -2.64093934264869E-16   3.37846511414951E-16   1.82555906241082E-01   1.82555906241082E-01
      0.00000000000000E+00   0.00000000000000E+00   2.64712439920334E-16   2.39474538799125E-20   2.64736387374213E-16
      4.34650443423211E-16  -5.00000000000000E-01  -5.00000000000000E-01   0.00000000000000E+00   0.00000000000000E+00
      0.00000000000000E+00   0.00000000000000E+00   0.00000000000000E+00  -4.57841519434810E-16
      2.15790479038865E-01
      0.00000000000000E+00   0.00000000000000E+00   0.00000000000000E+00   0.00000000000000E+00  -5.22815276977325E-16
     -1.15431184606831E-16  -6.38246461584156E-16   3.32815756577357E-16   2.15790479038865E-01   2.15790479038865E-01
      0.00000000000000E+00   0.00000000000000E+00   5.01142652835102E-16   4.11303848265784E-20   5.01183783219928E-16
      4.38471093392329E-16  -5.00000000000000E-01  -5.00000000000000E-01   0.00000000000000E+00   0.00000000000000E+00
      0.00000000000000E+00   0.00000000000000E+00   0.00000000000000E+00  -4.80276792174719E-16
      2.54785711121596E-01
      0.00000000000000E+00   0.00000000000000E+00   0.00000000000000E+00   0.00000000000000E+00  -6.65716965278718E-16
     -1.97954711447676E-16  -8.63671676726394E-16   3.29395578351435E-16   2.54785711121596E-01   2.54785711121596E-01
      0.00000000000000E+00   0.00000000000000E+00   8.65433139311766E-16   5.90059544675425E-20   8.65492145266234E-16
      4.44965505144872E-16  -5.00000000000000E-01  -5.00000000000000E-01   0.00000000000000E+00   0.00000000000000E+00
      0.00000000000000E+00   0.00000000000000E+00   0.00000000000000E+00  -4.96043061709003E-16
      3.00020180337564E-01
      0.00000000000000E+00   0.00000000000000E+00   0.00000000000000E+00   0.00000000000000E+00  -8.42545508011850E-16
     -2.49807000537354E-16  -1.09235250854920E-15   3.27892277503357E-16   3.00020180337564E-01   3.00020180337564E-01
      0.00000000000000E+00   0.00000000000000E+00   1.09267609314669E-15   6.78304328194527E-20   1.09274392357951E-15
      4.54226452210349E-16  -5.00000000000000E-01  -5.00000000000000E-01   0.00000000000000E+00   0.00000000000000E+00
      0.00000000000000E+00   0.00000000000000E+00   0.00000000000000E+00  -5.04074996184239E-16
      3.52492164628087E-01
      0.00000000000000E+00   0.00000000000000E+00   0.00000000000000E+00   0.00000000000000E+00  -9.42858599032876E-16
     -2.70191918934067E-16  -1.21305051796694E-15   3.27366573444851E-16   3.52492164628087E-01   3.52492164628087E-01
      0.00000000000000E+00   0.00000000000000E+00   1.21204178805212E-15   7.02507319055595E-20   1.21211203878403E-15
      4.65370342945449E-16  -5.00000000000000E-01  -5.00000000000000E-01   0.00000000000000E+00   0.00000000000000E+00
      0.00000000000000E+00   0.00000000000000E+00   0.00000000000000E+00  -5.08362477809065E-16
      4.13359666405094E-01
      0.00000000000000E+00   0.00000000000000E+00   0.00000000000000E+00   0.00000000000000E+00  -1.03199227295253E-15
     -2.82340534151572E-16  -1.31433280710411E-15   3.27053983947166E-16   4.13359666405094E-01   4.13359666405094E-01
      0.00000000000000E+00   0.00000000000000E+00   1.31215606508124E-15   7.09070564849461E-20   1.31222697213773E-15
      4.77665848353878E-16  -5.00000000000000E-01  -5.00000000000000E-01   0.00000000000000E+00   0.00000000000000E+00
      0.00000000000000E+00   0.00000000000000E+00   0.00000000000000E+00  -5.12097042950356E-16
      4.83965968466421E-01
      0.00000000000000E+00   0.00000000000000E+00   0.00000000000000E+00   0.00000000000000E+00  -1.13400602835660E-15
     -2.92660242013401E-16  -1.42666627037000E-15   3.26782138708402E-16   4.83965968466421E-01   4.83965968466421E-01
      0.00000000000000E+00   0.00000000000000E+00   1.42841270848635E-15   7.12740078990291E-20   1.42848398249425E-15
      4.90990792302949E-16  -5.00000000000000E-01  -5.00000000000000E-01   0.00000000000000E+00   0.00000000000000E+00
      0.00000000000000E+00   0.00000000000000E+00   0.00000000000000E+00  -5.16015242908209E-16
      5.65869278857562E-01
      0.00000000000000E+00   0.00000000000000E+00   0.00000000000000E+00   0.00000000000000E+00  -1.25441547591463E-15
     -2.99629048348828E-16  -1.55404452426346E-15   3.26573489479904E-16   5.65869278857562E-01   5.65869278857562E-01
      0.00000000000000E+00   0.00000000000000E+00   1.55562670066099E-15   7.16142673442769E-20   1.55569831492833E-15
      5.05495555238183E-16  -5.00000000000000E-01  -5.00000000000000E-01   0.00000000000000E+00   0.00000000000000E+00
      0.00000000000000E+00   0.00000000000000E+00   0.00000000000000E+00  -5.20023678006782E-16
      6.60877118911284E-01
      0.00000000000000E+00   0.00000000000000E+00   0.00000000000000E+00   0.00000000000000E+00  -1.40650326936169E-15
     -3.04114526540510E-16  -1.71061779590220E-15   3.26396890021906E-16   6.60877118911284E-01   6.60877118911284E-01
      0.00000000000000E+00   0.00000000000000E+00   1.71162030407100E-15   7.19748926811647E-20   1.71169227896368E-15
      5.21152589427646E-16  -5.00000000000000E-01  -5.00000000000000E-01   0.00000000000000E+00   0.00000000000000E+00
      0.00000000000000E+00   0.00000000000000E+00   0.00000000000000E+00  -5.24164865780442E-16
      7.69819442172886E-01
      0.00000000000000E+00   0.00000000000000E+00   0.00000000000000E+00   0.00000000000000E+00  -1.61110138004176E-15
     -3.07740783401428E-16  -1.91884216344319E-15   3.26206787030303E-16   7.69819442172886E-01   7.69819442172886E-01
      0.00000000000000E+00   0.00000000000000E+00   1.91826626023972E-15   7.23574075780244E-20   1.91833861764730E-15
      5.37451117451011E-16  -5.00000000000000E-01  -5.00000000000000E-01   0.00000000000000E+00   0.00000000000000E+00
      0.00000000000000E+00   0.00000000000000E+00   0.00000000000000E+00  -5.28373090649367E-16
      8.93287408536035E-01
      0.00000000000000E+00   0.00000000000000E+00   0.00000000000000E+00   0.00000000000000E+00  -1.91685732684658E-15
     -3.14233683307418E-16  -2.23109101015400E-15   3.25912106122007E-16   8.93287408536035E-01   8.93287408536035E-01
      0.00000000000000E+00   0.00000000000000E+00   2.22903127393271E-15   7.27601564565889E-20   2.22910403408917E-15
      5.54243398603502E-16  -5.00000000000000E-01  -5.00000000000000E-01   0.00000000000000E+00   0.00000000000000E+00
      0.00000000000000E+00   0.00000000000000E+00   0.00000000000000E+00  -5.32919242901833E-16
      1.00000000000000E+00
      0.00000000000000E+00   0.00000000000000E+00   0.00000000000000E+00   0.00000000000000E+00  -2.24644557552432E-15
     -3.17525213116769E-16  -2.56397078864109E-15   3.25671095282014E-16   1.00000000000000E+00   1.00000000000000E+00
      0.00000000000000E+00   0.00000000000000E+00   2.56368577300363E-15   7.30863619628437E-20   2.56375885936559E-15
      5.68133163559451E-16  -5.00000000000000E-01  -5.00000000000000E-01   0.00000000000000E+00   0.00000000000000E+00
      0.00000000000000E+00   0.00000000000000E+00   0.00000000000000E+00  -5.36587790010369E-16
      0.00000000000000E+00
      0.00000000000000E+00   0.00000000000000E+00   0.00000000000000E+00   0.00000000000000E+00  -2.24675226334991E-15
     -3.17525413280961E-16  -2.56427767663087E-15   3.25671091291612E-16   1.00000000000000E+00   1.00000000000000E+00
      0.00000000000000E+00   0.00000000000000E+00   2.56204832898113E-15   7.30863619204027E-20   2.56212141534305E-15
      5.68133162002839E-16  -5.00000000000000E-01  -5.00000000000000E-01   0.00000000000000E+00   0.00000000000000E+00
      0.00000000000000E+00   0.00000000000000E+00   0.00000000000000E+00  -5.36587806300905E-16
      1.00000000000000E-03
      0.00000000000000E+00   0.00000000000000E+00   0.00000000000000E+00   0.00000000000000E+00  -2.24890377346815E-15
     -3.17235437124766E-16  -2.56613921059291E-15   3.25629843471583E-16   1.00000000000000E+00   1.00000000000000E+00
      0.00000000000000E+00   0.00000000000000E+00   2.56456279278105E-15   7.30857682735274E-20   2.56463587854932E-15
      5.68071177237547E-16  -4.98000000000000E-01  -4.98000000000000E-01   0.00000000000000E+00   0.00000000000000E+00
      0.00000000000000E+00   0.00000000000000E+00   0.00000000000000E+00  -5.34465744858293E-16
      2.17333333333333E-03
      0.00000000000000E+00   0.00000000000000E+00   0.00000000000000E+00   0.00000000000000E+00  -2.25239226468110E-15
     -3.16891512274499E-16  -2.56928377695560E-15   3.25581155462013E-16   1.00000000000000E+00   1.00000000000000E+00
      0.00000000000000E+00   0.00000000000000E+00   2.56751229650983E-15   7.30850693744672E-20   2.56758538157920E-15
      5.67998247381703E-16  -4.95653333333333E-01  -4.95653333333333E-01   0.00000000000000E+00   0.00000000000000E+00
      0.00000000000000E+00   0.00000000000000E+00   0.00000000000000E+00  -5.31978135243270E-16
      3.56568888888889E-03
      0.00000000000000E+00   0.00000000000000E+00   0.00000000000000E+00   0.00000000000000E+00  -2.25619272101892E-15
     -3.16477793211392E-16  -2.57267051423031E-15   3.25522975263128E-16   1.00000000000000E+00   1.00000000000000E+00
      0.00000000000000E+00   0.00000000000000E+00   2.57235904744178E-15   7.30842367351114E-20   2.57243213167851E-15
      5.67911420032916E-16  -4.92868622222222E-01  -4.92868622222222E-01   0.00000000000000E+00   0.00000000000000E+00
      0.00000000000000E+00   0.00000000000000E+00   0.00000000000000E+00  -5.29029379067445E-16
      5.21795081481481E-03
      0.00000000000000E+00   0.00000000000000E+00   0.00000000000000E+00   0.00000000000000E+00  -2.26042005866677E-15
     -3.15978963550985E-16  -2.57639902221776E-15   3.25453357452911E-16   1.00000000000000E+00   1.00000000000000E+00
      0.00000000000000E+00   0.00000000000000E+00   2.57671042683548E-15   7.30832439282355E-20   2.57678351007941E-15
      5.67807975646625E-16  -4.89564098370370E-01  -4.89564098370370E-01   0.00000000000000E+00   0.00000000000000E+00
      0.00000000000000E+00   0.00000000000000E+00   0.00000000000000E+00  -5.25534795909641E-16
      7.17863496691358E-03
      0.00000000000000E+00   0.00000000000000E+00   0.00000000000000E+00   0.00000000000000E+00  -2.26727541791147E-15
     -3.15375703985583E-16  -2.58265112189705E-15   3.25369920890643E-16   1.00000000000000E+00   1.00000000000000E+00
      0.00000000000000E+00   0.00000000000000E+00   2.58033874047581E-15   7.30820589532530E-20   2.58041182253477E-15
      5.67684630812505E-16  -4.85642730066173E-01  -4.85642730066173E-01   0.00000000000000E+00   0.00000000000000E+00
      0.00000000000000E+00   0.00000000000000E+00   0.00000000000000E+00  -5.21394516869574E-16
      9.50531349407078E-03
      0.00000000000000E+00   0.00000000000000E+00   0.00000000000000E+00   0.00000000000000E+00  -2.27518018103670E-15
     -3.14643493365324E-16  -2.58982367440203E-15   3.25269733524436E-16   1.00000000000000E+00   1.00000000000000E+00
      0.00000000000000E+00   0.00000000000000E+00   2.58664378173881E-15   7.30806428684450E-20   2.58671686238168E-15
      5.67537405147975E-16  -4.80989373011858E-01  -4.80989373011858E-01   0.00000000000000E+00   0.00000000000000E+00
      0.00000000000000E+00   0.00000000000000E+00   0.00000000000000E+00  -5.16490948569723E-16
      1.22663053462973E-02
      0.00000000000000E+00   0.00000000000000E+00   0.00000000000000E+00   0.00000000000000E+00  -2.28556084025592E-15
     -3.13750896130064E-16  -2.59931173638598E-15   3.25149161432078E-16   1.00000000000000E+00   1.00000000000000E+00
      0.00000000000000E+00   0.00000000000000E+00   2.59259272994319E-15   7.30789480109742E-20   2.59266580889120E-15
      5.67361449317965E-16  -4.75467389307405E-01  -4.75467389307405E-01   0.00000000000000E+00   0.00000000000000E+00
      0.00000000000000E+00   0.00000000000000E+00   0.00000000000000E+00  -5.10685910037460E-16
      1.55426823442728E-02
      0.00000000000000E+00   0.00000000000000E+00   0.00000000000000E+00   0.00000000000000E+00  -2.30076773782837E-15
     -3.12657087862014E-16  -2.61342482569039E-15   3.25003668735952E-16   1.00000000000000E+00   1.00000000000000E+00
      0.00000000000000E+00   0.00000000000000E+00   2.60104912147300E-15   7.30769156376966E-20   2.60112219838864E-15
      5.67150818922466E-16  -4.68914635311454E-01  -4.68914635311454E-01   0.00000000000000E+00   0.00000000000000E+00
      0.00000000000000E+00   0.00000000000000E+00   0.00000000000000E+00  -5.03817462040668E-16
      1.94306497152037E-02
      0.00000000000000E+00   0.00000000000000E+00   0.00000000000000E+00   0.00000000000000E+00  -2.32914601401195E-15
     -3.11308344598739E-16  -2.64045435861068E-15   3.24827547432979E-16   1.00000000000000E+00   1.00000000000000E+00
      0.00000000000000E+00   0.00000000000000E+00   2.61201119858614E-15   7.30744727111096E-20   2.61208427305885E-15
      5.66898170462213E-16  -4.61138700569592E-01  -4.61138700569592E-01   0.00000000000000E+00   0.00000000000000E+00
      0.00000000000000E+00   0.00000000000000E+00   0.00000000000000E+00  -4.95696508280893E-16
      2.40443709953751E-02
      0.00000000000000E+00   0.00000000000000E+00   0.00000000000000E+00   0.00000000000000E+00  -2.37447218396812E-15
     -3.09632914128378E-16  -2.68410509809649E-15   3.24613550725149E-16   1.00000000000000E+00   1.00000000000000E+00
      0.00000000000000E+00   0.00000000000000E+00   2.62541131103388E-15   7.30715274415993E-20   2.62548438256132E-15
      5.66594344358331E-16  -4.51911258009250E-01  -4.51911258009250E-01   0.00000000000000E+00   0.00000000000000E+00
      0.00000000000000E+00   0.00000000000000E+00   0.00000000000000E+00  -4.86103328538401E-16
      2.95193202478451E-02
      0.00000000000000E+00   0.00000000000000E+00   0.00000000000000E+00   0.00000000000000E+00  -2.33480902280347E-15
     -3.07533677132670E-16  -2.64234269993614E-15   3.24352387913957E-16   1.00000000000000E+00   1.00000000000000E+00
      0.00000000000000E+00   0.00000000000000E+00   2.64054960787438E-15   7.30679629285508E-20   2.64062267583731E-15
      5.66227779470707E-16  -4.40961359504310E-01  -4.40961359504310E-01   0.00000000000000E+00   0.00000000000000E+00
      0.00000000000000E+00   0.00000000000000E+00   0.00000000000000E+00  -4.74784374392084E-16
      3.59432607040766E-02
      0.00000000000000E+00   0.00000000000000E+00   0.00000000000000E+00   0.00000000000000E+00  -2.35581067553622E-15
     -3.04906230284064E-16  -2.66071690582028E-15   3.24035736145470E-16   1.00000000000000E+00   1.00000000000000E+00
      0.00000000000000E+00   0.00000000000000E+00   2.66092446594413E-15   7.30636778056875E-20   2.66099752962194E-15
      5.65788742892597E-16  -4.28113478591847E-01  -4.28113478591847E-01   0.00000000000000E+00   0.00000000000000E+00
      0.00000000000000E+00   0.00000000000000E+00   0.00000000000000E+00  -4.61598915342117E-16
      4.34806841727216E-02
      0.00000000000000E+00   0.00000000000000E+00   0.00000000000000E+00   0.00000000000000E+00  -2.38372248465207E-15
     -3.01581519736766E-16  -2.68530400438883E-15   3.23649807238867E-16   1.00000000000000E+00   1.00000000000000E+00
      0.00000000000000E+00   0.00000000000000E+00   2.68383310501307E-15   7.30584976681555E-20   2.68390616351073E-15
      5.65260351615410E-16  -4.13038631654557E-01  -4.13038631654557E-01   0.00000000000000E+00   0.00000000000000E+00
      0.00000000000000E+00   0.00000000000000E+00   0.00000000000000E+00  -4.46268402935938E-16
      5.23245943759316E-02
      0.00000000000000E+00   0.00000000000000E+00   0.00000000000000E+00   0.00000000000000E+00  -2.41762345019513E-15
     -2.97322127983261E-16  -2.71494557817839E-15   3.23176864981816E-16   1.00000000000000E+00   1.00000000000000E+00