DF-ISE text

Info {
  version   = 1.0
  type      = xyplot
  datasets  = [
    "time"
    "S OuterVoltage" "S InnerVoltage" "S QuasiFermiPotential" "S DisplacementCurrent" "S eCurrent"
    "S hCurrent" "S TotalCurrent" "S Charge" "D OuterVoltage" "D InnerVoltage"
    "D QuasiFermiPotential" "D DisplacementCurrent" "D eCurrent" "D hCurrent" "D TotalCurrent"
    "D Charge" "G OuterVoltage" "G InnerVoltage" "G QuasiFermiPotential" "G DisplacementCurrent"
    "G eCurrent" "G hCurrent" "G TotalCurrent" "G Charge" ]
  functions = [
    Time
    OuterVoltage InnerVoltage QuasiFermiPotential DisplacementCurrent eCurrent
    hCurrent TotalCurrent Charge OuterVoltage InnerVoltage
    QuasiFermiPotential DisplacementCurrent eCurrent hCurrent TotalCurrent
    Charge OuterVoltage InnerVoltage QuasiFermiPotential DisplacementCurrent
    eCurrent hCurrent TotalCurrent Charge ]
}

Data {
      0.00000000000000E+00
      0.00000000000000E+00   0.00000000000000E+00   0.00000000000000E+00   0.00000000000000E+00   7.59574281897911E-23
     -1.21647218861571E-34   7.59574281896694E-23   3.88553155677197E-16   0.00000000000000E+00   0.00000000000000E+00
      0.00000000000000E+00   0.00000000000000E+00   7.29342532806818E-20  -7.43897979418628E-35   7.29342532806817E-20
      4.34536692443390E-16  -5.00000000000000E-01  -5.00000000000000E-01   0.00000000000000E+00   0.00000000000000E+00
      0.00000000000000E+00   0.00000000000000E+00   0.00000000000000E+00  -2.39212291836053E-16
      0.00000000000000E+00
      0.00000000000000E+00   0.00000000000000E+00   0.00000000000000E+00   0.00000000000000E+00   8.13934310823648E-19
     -2.53501063844594E-33   8.13934310823646E-19   3.88553155676476E-16   0.00000000000000E+00   0.00000000000000E+00
      0.00000000000000E+00   0.00000000000000E+00   2.91944815058561E-19  -2.57145042684636E-33   2.91944815058558E-19
      4.34536692442408E-16  -5.00000000000000E-01  -5.00000000000000E-01   0.00000000000000E+00   0.00000000000000E+00
      0.00000000000000E+00   0.00000000000000E+00   0.00000000000000E+00  -2.39212291836061E-16
      1.00000000000000E-03
      0.00000000000000E+00   0.00000000000000E+00   0.00000000000000E+00   0.00000000000000E+00  -6.72005209227140E-19
     -2.70746518207705E-21  -6.74712674409217E-19   3.88327290589332E-16   1.00000000000000E-03   1.00000000000000E-03
      0.00000000000000E+00   0.00000000000000E+00   3.65224169811006E-19   2.10515991553534E-23   3.65245221410161E-19
      4.34578940683995E-16  -5.00000000000000E-01  -5.00000000000000E-01   0.00000000000000E+00   0.00000000000000E+00
      0.00000000000000E+00   0.00000000000000E+00   0.00000000000000E+00  -2.40300021792043E-16
      2.17333333333333E-03
      0.00000000000000E+00   0.00000000000000E+00   0.00000000000000E+00   0.00000000000000E+00  -1.57319622803483E-17
     -6.01832966865383E-21  -1.57379806100170E-17   3.88061940582863E-16   2.17333333333333E-03   2.17333333333333E-03
      0.00000000000000E+00   0.00000000000000E+00  -2.65587958144154E-20   4.59379088391045E-23  -2.65128579055763E-20
      4.34628503517876E-16  -5.00000000000000E-01  -5.00000000000000E-01   0.00000000000000E+00   0.00000000000000E+00
      0.00000000000000E+00   0.00000000000000E+00   0.00000000000000E+00  -2.41576534640905E-16
      3.58133333333333E-03
      0.00000000000000E+00   0.00000000000000E+00   0.00000000000000E+00   0.00000000000000E+00  -2.12482367698015E-20
     -1.01913859695814E-20  -3.14396227393829E-20   3.87743047732580E-16   3.58133333333333E-03   3.58133333333333E-03
      0.00000000000000E+00   0.00000000000000E+00   9.49069804511404E-19   7.60849464351233E-23   9.49145889457839E-19
      4.34687968377949E-16  -5.00000000000000E-01  -5.00000000000000E-01   0.00000000000000E+00   0.00000000000000E+00
      0.00000000000000E+00   0.00000000000000E+00   0.00000000000000E+00  -2.43108686065121E-16
      5.25216000000000E-03
      0.00000000000000E+00   0.00000000000000E+00   0.00000000000000E+00   0.00000000000000E+00  -6.97600783354978E-19
     -1.54422097568588E-20  -7.13042993111837E-19   3.87363965968819E-16   5.25216000000000E-03   5.25216000000000E-03
      0.00000000000000E+00   0.00000000000000E+00   8.03816696464808E-19   1.12283577658144E-22   8.03928980042467E-19
      4.34758520285407E-16  -5.00000000000000E-01  -5.00000000000000E-01   0.00000000000000E+00   0.00000000000000E+00
      0.00000000000000E+00   0.00000000000000E+00   0.00000000000000E+00  -2.44927300538726E-16
      7.23487431111111E-03
      0.00000000000000E+00   0.00000000000000E+00   0.00000000000000E+00   0.00000000000000E+00  -8.58191500432601E-19
     -2.21218471894540E-20  -8.80313347622055E-19   3.86913202076729E-16   7.23487431111111E-03   7.23487431111111E-03
      0.00000000000000E+00   0.00000000000000E+00   1.55502673160367E-21   1.55883493074084E-22   1.71091022467775E-21
      4.34842227243766E-16  -5.00000000000000E-01  -5.00000000000000E-01   0.00000000000000E+00   0.00000000000000E+00
      0.00000000000000E+00   0.00000000000000E+00   0.00000000000000E+00  -2.47086012570785E-16
      9.58769529362963E-03
      0.00000000000000E+00   0.00000000000000E+00   0.00000000000000E+00   0.00000000000000E+00  -6.50030042432665E-19
     -3.07301559208430E-20  -6.80760198353508E-19   3.86377020321952E-16   9.58769529362963E-03   9.58769529362963E-03
      0.00000000000000E+00   0.00000000000000E+00   1.38815848693182E-18   2.08607219331132E-22   1.38836709415115E-18
      4.34941545129571E-16  -5.00000000000000E-01  -5.00000000000000E-01   0.00000000000000E+00   0.00000000000000E+00
      0.00000000000000E+00   0.00000000000000E+00   0.00000000000000E+00  -2.49648516472953E-16
      1.23797095262183E-02
      0.00000000000000E+00   0.00000000000000E+00   0.00000000000000E+00   0.00000000000000E+00  -8.15124255718516E-19
     -4.19962756634263E-20  -8.57120531381943E-19   3.85738989966355E-16   1.23797095262183E-02   1.23797095262183E-02
      0.00000000000000E+00   0.00000000000000E+00   8.04743319169431E-19   2.72694473222704E-22   8.05016013642654E-19
      4.35059392867271E-16  -5.00000000000000E-01  -5.00000000000000E-01   0.00000000000000E+00   0.00000000000000E+00
      0.00000000000000E+00   0.00000000000000E+00   0.00000000000000E+00  -2.52690450074383E-16
      1.56928997488901E-02
      0.00000000000000E+00   0.00000000000000E+00   0.00000000000000E+00   0.00000000000000E+00  -1.20742444852087E-18
     -5.70128031029051E-20  -1.26443725162377E-18   3.84979438329940E-16   1.56928997488901E-02   1.56928997488901E-02
      0.00000000000000E+00   0.00000000000000E+00   2.62851684526699E-18   3.51121619889023E-22   2.62886796688688E-18
      4.35199244177579E-16  -5.00000000000000E-01  -5.00000000000000E-01   0.00000000000000E+00   0.00000000000000E+00
      0.00000000000000E+00   0.00000000000000E+00   0.00000000000000E+00  -2.56301623039177E-16
      1.96245521464607E-02
      0.00000000000000E+00   0.00000000000000E+00   0.00000000000000E+00   0.00000000000000E+00  -2.27936192593077E-18
     -7.74668965637188E-20  -2.35682882249449E-18   3.84074790725307E-16   1.96245521464607E-02   1.96245521464607E-02
      0.00000000000000E+00   0.00000000000000E+00   2.33544644487057E-18   4.47948127960346E-22   2.33589439299853E-18
      4.35365241471226E-16  -5.00000000000000E-01  -5.00000000000000E-01   0.00000000000000E+00   0.00000000000000E+00
      0.00000000000000E+00   0.00000000000000E+00   0.00000000000000E+00  -2.60588642384352E-16
      2.42901129915778E-02
      0.00000000000000E+00   0.00000000000000E+00   0.00000000000000E+00   0.00000000000000E+00  -3.73333258414288E-18
     -1.06052919537688E-19  -3.83938550368057E-18   3.82996776674747E-16   2.42901129915778E-02   2.42901129915778E-02
      0.00000000000000E+00   0.00000000000000E+00   2.99168714140171E-18   5.68879165642896E-22   2.99225602056735E-18
      4.35562340500717E-16  -5.00000000000000E-01  -5.00000000000000E-01   0.00000000000000E+00   0.00000000000000E+00
      0.00000000000000E+00   0.00000000000000E+00   0.00000000000000E+00  -2.65677986804687E-16
      2.98265785277835E-02
      0.00000000000000E+00   0.00000000000000E+00   0.00000000000000E+00   0.00000000000000E+00  -3.02794900202113E-18
     -1.47239238742349E-19  -3.17518824076348E-18   3.81711483053132E-16   2.98265785277835E-02   2.98265785277835E-02
      0.00000000000000E+00   0.00000000000000E+00   4.59678424888257E-18   7.22214726846190E-22   4.59750646360941E-18
      4.35796500856823E-16  -5.00000000000000E-01  -5.00000000000000E-01   0.00000000000000E+00   0.00000000000000E+00
      0.00000000000000E+00   0.00000000000000E+00   0.00000000000000E+00  -2.71719564509309E-16
      3.63965176307475E-02
      0.00000000000000E+00   0.00000000000000E+00   0.00000000000000E+00   0.00000000000000E+00  -5.63825338416945E-18
     -2.08757831852790E-19  -5.84701121602224E-18   3.80178241921586E-16   3.63965176307475E-02   3.63965176307475E-02
      0.00000000000000E+00   0.00000000000000E+00   5.25493819429397E-18   9.20505802925933E-22   5.25585870009689E-18
      4.36074949422329E-16  -5.00000000000000E-01  -5.00000000000000E-01   0.00000000000000E+00   0.00000000000000E+00
      0.00000000000000E+00   0.00000000000000E+00   0.00000000000000E+00  -2.78890745073388E-16
      4.41928453662648E-02
      0.00000000000000E+00   0.00000000000000E+00   0.00000000000000E+00   0.00000000000000E+00  -6.94887581596472E-18
     -3.04644461644117E-19  -7.25352027760884E-18   3.78348365033072E-16   4.41928453662648E-02   4.41928453662648E-02
      0.00000000000000E+00   0.00000000000000E+00   7.06494871416231E-18   1.18356597231771E-21   7.06613228013463E-18
      4.36406570435375E-16  -5.00000000000000E-01  -5.00000000000000E-01   0.00000000000000E+00   0.00000000000000E+00
      0.00000000000000E+00   0.00000000000000E+00   0.00000000000000E+00  -2.87400736210674E-16
      5.34444876124120E-02
      0.00000000000000E+00   0.00000000000000E+00   0.00000000000000E+00   0.00000000000000E+00  -7.59061799586035E-18
     -4.61792328385794E-19  -8.05241032424614E-18   3.76163802858144E-16   5.34444876124120E-02   5.34444876124120E-02
      0.00000000000000E+00   0.00000000000000E+00   8.54820416349723E-18   1.54421330218759E-21   8.54974837679942E-18
      4.36802536035398E-16  -5.00000000000000E-01  -5.00000000000000E-01   0.00000000000000E+00   0.00000000000000E+00
      0.00000000000000E+00   0.00000000000000E+00   0.00000000000000E+00  -2.97494877989855E-16
      6.42997478478914E-02
      0.00000000000000E+00   0.00000000000000E+00   0.00000000000000E+00   0.00000000000000E+00  -1.08324890697893E-17
     -7.31222239228800E-19  -1.15637113090181E-17   3.73585353125584E-16   6.42997478478914E-02   6.42997478478914E-02
      0.00000000000000E+00   0.00000000000000E+00   1.13254026117197E-17   2.05331450129818E-21   1.13274559262210E-17
      4.37272056355072E-16  -5.00000000000000E-01  -5.00000000000000E-01   0.00000000000000E+00   0.00000000000000E+00
      0.00000000000000E+00   0.00000000000000E+00   0.00000000000000E+00  -3.09323431416946E-16
      7.70365865241872E-02
      0.00000000000000E+00   0.00000000000000E+00   0.00000000000000E+00   0.00000000000000E+00  -1.36164333311553E-17
     -1.22316321018481E-18  -1.48395965413401E-17   3.70544609215272E-16   7.70365865241872E-02   7.70365865241872E-02
      0.00000000000000E+00   0.00000000000000E+00   1.57829212034571E-17   2.80812764571540E-21   1.57857293311028E-17
      4.37833006074339E-16  -5.00000000000000E-01  -5.00000000000000E-01   0.00000000000000E+00   0.00000000000000E+00
      0.00000000000000E+00   0.00000000000000E+00   0.00000000000000E+00  -3.23162331792672E-16
      9.19811439043743E-02
      0.00000000000000E+00   0.00000000000000E+00   0.00000000000000E+00   0.00000000000000E+00  -2.04414880976924E-17
     -2.18740322770063E-18  -2.26288913253930E-17   3.66967184230518E-16   9.19811439043743E-02   9.19811439043743E-02
      0.00000000000000E+00   0.00000000000000E+00   2.28720884260680E-17   3.99535133326663E-21   2.28760837774013E-17
      4.38512361680831E-16  -5.00000000000000E-01  -5.00000000000000E-01   0.00000000000000E+00   0.00000000000000E+00
      0.00000000000000E+00   0.00000000000000E+00   0.00000000000000E+00  -3.39303444000311E-16
      1.09516091230460E-01
      0.00000000000000E+00   0.00000000000000E+00   0.00000000000000E+00   0.00000000000000E+00  -3.04567880410628E-17
     -4.22808122508500E-18  -3.46848692661478E-17   3.62782199467957E-16   1.09516091230460E-01   1.09516091230460E-01
      0.00000000000000E+00   0.00000000000000E+00   3.63131589780758E-17   5.99442897162262E-21   3.63191534070474E-17
      4.39356208772671E-16  -5.00000000000000E-01  -5.00000000000000E-01   0.00000000000000E+00   0.00000000000000E+00
      0.00000000000000E+00   0.00000000000000E+00   0.00000000000000E+00  -3.58011836942942E-16
      1.30090429426402E-01
      0.00000000000000E+00   0.00000000000000E+00   0.00000000000000E+00   0.00000000000000E+00  -5.25279053628381E-17
     -8.88086549877283E-18  -6.14087708616109E-17   3.57951545016384E-16   1.30090429426402E-01   1.30090429426402E-01
      0.00000000000000E+00   0.00000000000000E+00   6.11342659873653E-17   9.60577536963719E-21   6.11438717627349E-17
      4.40455285713040E-16  -5.00000000000000E-01  -5.00000000000000E-01   0.00000000000000E+00   0.00000000000000E+00
      0.00000000000000E+00   0.00000000000000E+00   0.00000000000000E+00  -3.79401227265473E-16
      1.54230986242972E-01
      0.00000000000000E+00   0.00000000000000E+00   0.00000000000000E+00   0.00000000000000E+00  -9.31713238351587E-17
     -2.00228208842708E-17  -1.13194144719430E-16   3.52551020501530E-16   1.54230986242972E-01   1.54230986242972E-01
      0.00000000000000E+00   0.00000000000000E+00   1.12970677854208E-16   1.64411568526410E-20   1.12987119011060E-16
      4.42009776288985E-16  -5.00000000000000E-01  -5.00000000000000E-01   0.00000000000000E+00   0.00000000000000E+00
      0.00000000000000E+00   0.00000000000000E+00   0.00000000000000E+00  -4.03099277084501E-16
      1.82555906241082E-01
      0.00000000000000E+00   0.00000000000000E+00   0.00000000000000E+00   0.00000000000000E+00  -1.95316840671513E-16
     -4.58971178805026E-17  -2.41213958552015E-16   3.46942874307452E-16   1.82555906241082E-01   1.82555906241082E-01
      0.00000000000000E+00   0.00000000000000E+00   2.17481798589317E-16   2.87776797987937E-20   2.17510576269116E-16
      4.44458836077226E-16  -5.00000000000000E-01  -5.00000000000000E-01   0.00000000000000E+00   0.00000000000000E+00
      0.00000000000000E+00   0.00000000000000E+00   0.00000000000000E+00  -4.27556084701012E-16
      2.15790479038865E-01
      0.00000000000000E+00   0.00000000000000E+00   0.00000000000000E+00   0.00000000000000E+00  -3.30398614849417E-16
     -9.57951771579634E-17  -4.26193792007381E-16   3.41892336282200E-16   2.15790479038865E-01   2.15790479038865E-01
      0.00000000000000E+00   0.00000000000000E+00   4.25748794833742E-16   4.60576137496584E-20   4.25794852447492E-16
      4.48547912466242E-16  -5.00000000000000E-01  -5.00000000000000E-01   0.00000000000000E+00   0.00000000000000E+00
      0.00000000000000E+00   0.00000000000000E+00   0.00000000000000E+00  -4.49627708169433E-16
      2.54342583484292E-01
      0.00000000000000E+00   0.00000000000000E+00   0.00000000000000E+00   0.00000000000000E+00  -5.30353114549083E-16
     -1.63177356208385E-16  -6.93530470757468E-16   3.38190668351316E-16   2.54342583484292E-01   2.54342583484292E-01
      0.00000000000000E+00   0.00000000000000E+00   6.91453471192504E-16   6.08335174523432E-20   6.91514304709956E-16
      4.54887780910087E-16  -5.00000000000000E-01  -5.00000000000000E-01   0.00000000000000E+00   0.00000000000000E+00
      0.00000000000000E+00   0.00000000000000E+00   0.00000000000000E+00  -4.66164984123497E-16
      2.99063024640988E-01
      0.00000000000000E+00   0.00000000000000E+00   0.00000000000000E+00   0.00000000000000E+00  -7.16653414728532E-16
     -2.23727170514039E-16  -9.40380585242570E-16   3.35974131211363E-16   2.99063024640988E-01   2.99063024640988E-01
      0.00000000000000E+00   0.00000000000000E+00   9.41577391964258E-16   6.80428259162833E-20   9.41645434790174E-16
      4.63574892111301E-16  -5.00000000000000E-01  -5.00000000000000E-01   0.00000000000000E+00   0.00000000000000E+00
      0.00000000000000E+00   0.00000000000000E+00   0.00000000000000E+00  -4.76765503691841E-16
      3.50938736382755E-01
      0.00000000000000E+00   0.00000000000000E+00   0.00000000000000E+00   0.00000000000000E+00  -8.56906245788632E-16
     -2.61154742062417E-16  -1.11806098785105E-15   3.34872586165044E-16   3.50938736382755E-01   3.50938736382755E-01
      0.00000000000000E+00   0.00000000000000E+00   1.11543302770672E-15   7.02674010227181E-20   1.11550329510775E-15
      4.74210148271110E-16  -5.00000000000000E-01  -5.00000000000000E-01   0.00000000000000E+00   0.00000000000000E+00
      0.00000000000000E+00   0.00000000000000E+00   0.00000000000000E+00  -4.83049459235563E-16
      4.11114562003205E-01
      0.00000000000000E+00   0.00000000000000E+00   0.00000000000000E+00   0.00000000000000E+00  -9.61469942173505E-16
     -2.82040121617147E-16  -1.24351006379065E-15   3.34309184835191E-16   4.11114562003205E-01   4.11114562003205E-01
      0.00000000000000E+00   0.00000000000000E+00   1.24300361317320E-15   7.09262770748382E-20   1.24307453945028E-15
      4.86186092575029E-16  -5.00000000000000E-01  -5.00000000000000E-01   0.00000000000000E+00   0.00000000000000E+00
      0.00000000000000E+00   0.00000000000000E+00   0.00000000000000E+00  -4.87413915524263E-16
      4.80918519722926E-01
      0.00000000000000E+00   0.00000000000000E+00   0.00000000000000E+00   0.00000000000000E+00  -1.06094901721528E-15
     -2.95232408530544E-16  -1.35618142574583E-15   3.33956320354169E-16   4.80918519722926E-01   4.80918519722926E-01
      0.00000000000000E+00   0.00000000000000E+00   1.35489623116540E-15   7.12978146646528E-20   1.35496752898006E-15
      4.99186723886564E-16  -5.00000000000000E-01  -5.00000000000000E-01   0.00000000000000E+00   0.00000000000000E+00
      0.00000000000000E+00   0.00000000000000E+00   0.00000000000000E+00  -4.91193663547451E-16
      5.61891110677804E-01
      0.00000000000000E+00   0.00000000000000E+00   0.00000000000000E+00   0.00000000000000E+00  -1.16671241610305E-15
     -3.03155518924960E-16  -1.46986793502801E-15   3.33726339787139E-16   5.61891110677804E-01   5.61891110677804E-01
      0.00000000000000E+00   0.00000000000000E+00   1.47077217943942E-15   7.16414292055200E-20   1.47084382086863E-15
      5.13157374349970E-16  -5.00000000000000E-01  -5.00000000000000E-01   0.00000000000000E+00   0.00000000000000E+00
      0.00000000000000E+00   0.00000000000000E+00   0.00000000000000E+00  -4.94690085677147E-16
      6.55819316185461E-01
      0.00000000000000E+00   0.00000000000000E+00   0.00000000000000E+00   0.00000000000000E+00  -1.29348875298072E-15
     -3.07924112273623E-16  -1.60141286525435E-15   3.33555359748493E-16   6.55819316185461E-01   6.55819316185461E-01
      0.00000000000000E+00   0.00000000000000E+00   1.60032541711365E-15   7.20063298556209E-20   1.60039742344350E-15
      5.27929148103266E-16  -5.00000000000000E-01  -5.00000000000000E-01   0.00000000000000E+00   0.00000000000000E+00
      0.00000000000000E+00   0.00000000000000E+00   0.00000000000000E+00  -4.98023553170771E-16
      7.62271282427473E-01
      0.00000000000000E+00   0.00000000000000E+00   0.00000000000000E+00   0.00000000000000E+00  -1.45637063301303E-15
     -3.11483354601524E-16  -1.76785398761456E-15   3.33389593594012E-16   7.62271282427473E-01   7.62271282427473E-01
      0.00000000000000E+00   0.00000000000000E+00   1.76645944708298E-15   7.23888955495652E-20   1.76653183597853E-15
      5.43145672656939E-16  -5.00000000000000E-01  -5.00000000000000E-01   0.00000000000000E+00   0.00000000000000E+00
      0.00000000000000E+00   0.00000000000000E+00   0.00000000000000E+00  -5.01266667860901E-16
      8.81497484618527E-01
      0.00000000000000E+00   0.00000000000000E+00   0.00000000000000E+00   0.00000000000000E+00  -1.69635113011698E-15
     -3.17975944745494E-16  -2.01432707486248E-15   3.33124867220677E-16   8.81497484618527E-01   8.81497484618527E-01
      0.00000000000000E+00   0.00000000000000E+00   2.01439196983286E-15   7.27840403328944E-20   2.01446475387320E-15
      5.59187082760301E-16  -5.00000000000000E-01  -5.00000000000000E-01   0.00000000000000E+00   0.00000000000000E+00
      0.00000000000000E+00   0.00000000000000E+00   0.00000000000000E+00  -5.04951973837367E-16
      1.00000000000000E+00
      0.00000000000000E+00   0.00000000000000E+00   0.00000000000000E+00   0.00000000000000E+00  -1.99248928645218E-15
     -3.22278353791825E-16  -2.31476764024400E-15   3.32878264457835E-16   1.00000000000000E+00   1.00000000000000E+00
      0.00000000000000E+00   0.00000000000000E+00   2.31471275052031E-15   7.31493497846079E-20   2.31478589987010E-15
      5.74702916429503E-16  -5.00000000000000E-01  -5.00000000000000E-01   0.00000000000000E+00   0.00000000000000E+00
      0.00000000000000E+00   0.00000000000000E+00   0.00000000000000E+00  -5.08411167287322E-16
      0.00000000000000E+00
      0.00000000000000E+00   0.00000000000000E+00   0.00000000000000E+00   0.00000000000000E+00  -1.99176324728909E-15
     -3.22278602675422E-16  -2.31404184996451E-15   3.32878259083644E-16   1.00000000000000E+00   1.00000000000000E+00
      0.00000000000000E+00   0.00000000000000E+00   2.31366684896620E-15   7.31493497304425E-20   2.31373999831593E-15
      5.74702914373375E-16  -5.00000000000000E-01  -5.00000000000000E-01   0.00000000000000E+00   0.00000000000000E+00
      0.00000000000000E+00   0.00000000000000E+00   0.00000000000000E+00  -5.08411189232386E-16
      1.00000000000000E-03
      0.00000000000000E+00   0.00000000000000E+00   0.00000000000000E+00   0.00000000000000E+00  -1.99415258363433E-15
     -3.22153827134320E-16  -2.31630641076866E-15   3.32862890747011E-16   1.00000000000000E+00   1.00000000000000E+00
      0.00000000000000E+00   0.00000000000000E+00   2.31613157341977E-15   7.31488902648602E-20   2.31620472231004E-15
      5.74651760766442E-16  -4.98000000000000E-01  -4.98000000000000E-01   0.00000000000000E+00   0.00000000000000E+00
      0.00000000000000E+00   0.00000000000000E+00   0.00000000000000E+00  -5.06143687313506E-16
      2.17333333333333E-03
      0.00000000000000E+00   0.00000000000000E+00   0.00000000000000E+00   0.00000000000000E+00  -1.99531853709539E-15
     -3.22006578675622E-16  -2.31732511577102E-15   3.32844811812541E-16   1.00000000000000E+00   1.00000000000000E+00
      0.00000000000000E+00   0.00000000000000E+00   2.31600184870154E-15   7.31483508055929E-20   2.31607499705235E-15
      5.74591711266457E-16  -4.95653333333333E-01  -4.95653333333333E-01   0.00000000000000E+00   0.00000000000000E+00
      0.00000000000000E+00   0.00000000000000E+00   0.00000000000000E+00  -5.03483515662081E-16
      3.58133333333333E-03
      0.00000000000000E+00   0.00000000000000E+00   0.00000000000000E+00   0.00000000000000E+00  -1.99719462583885E-15
     -3.21828402590487E-16  -2.31902302842933E-15   3.32823055784779E-16   1.00000000000000E+00   1.00000000000000E+00
      0.00000000000000E+00   0.00000000000000E+00   2.31751702093510E-15   7.31477030054237E-20   2.31759016863811E-15
      5.74519612010192E-16  -4.92837333333333E-01  -4.92837333333333E-01   0.00000000000000E+00   0.00000000000000E+00
      0.00000000000000E+00   0.00000000000000E+00   0.00000000000000E+00  -5.00291809170390E-16
      5.27093333333333E-03
      0.00000000000000E+00   0.00000000000000E+00   0.00000000000000E+00   0.00000000000000E+00  -1.99961513329618E-15
     -3.21612348077649E-16  -2.32122748137383E-15   3.32796861762188E-16   1.00000000000000E+00   1.00000000000000E+00
      0.00000000000000E+00   0.00000000000000E+00   2.31946131139243E-15   7.31469250141446E-20   2.31953445831745E-15
      5.74433035759197E-16  -4.89458133333333E-01  -4.89458133333333E-01   0.00000000000000E+00   0.00000000000000E+00
      0.00000000000000E+00   0.00000000000000E+00   0.00000000000000E+00  -4.96462479002126E-16
      7.29845333333333E-03
      0.00000000000000E+00   0.00000000000000E+00   0.00000000000000E+00   0.00000000000000E+00  -2.00206170352840E-15
     -3.21349871017259E-16  -2.32341157454566E-15   3.32765301817383E-16   1.00000000000000E+00   1.00000000000000E+00
      0.00000000000000E+00   0.00000000000000E+00   2.32265227534730E-15   7.31459904950106E-20   2.32272542133779E-15
      5.74329060571881E-16  -4.85403093333333E-01  -4.85403093333333E-01   0.00000000000000E+00   0.00000000000000E+00
      0.00000000000000E+00   0.00000000000000E+00   0.00000000000000E+00  -4.91868332784669E-16
      9.73147733333333E-03
      0.00000000000000E+00   0.00000000000000E+00   0.00000000000000E+00   0.00000000000000E+00  -2.00482307513601E-15
     -3.21031235012452E-16  -2.32585431014846E-15   3.32727222970177E-16   1.00000000000000E+00   1.00000000000000E+00
      0.00000000000000E+00   0.00000000000000E+00   2.32467710535641E-15   7.31448674936825E-20   2.32475025022391E-15
      5.74204159650978E-16  -4.80537045333333E-01  -4.80537045333333E-01   0.00000000000000E+00   0.00000000000000E+00
      0.00000000000000E+00   0.00000000000000E+00   0.00000000000000E+00  -4.86356980754672E-16
      1.26186658133333E-02
      0.00000000000000E+00   0.00000000000000E+00   0.00000000000000E+00   0.00000000000000E+00  -2.00933048755036E-15
     -3.20646063730270E-16  -2.32997655128063E-15   3.32681778404758E-16   1.00000000000000E+00   1.00000000000000E+00
      0.00000000000000E+00   0.00000000000000E+00   2.32940449797913E-15   7.31435329873346E-20   2.32947764151212E-15
      5.74055770487744E-16  -4.74762668373333E-01  -4.74762668373333E-01   0.00000000000000E+00   0.00000000000000E+00
      0.00000000000000E+00   0.00000000000000E+00   0.00000000000000E+00  -4.79819021374047E-16
      1.60447961429333E-02
      0.00000000000000E+00   0.00000000000000E+00   0.00000000000000E+00   0.00000000000000E+00  -2.01345011041320E-15
     -3.20179997777268E-16  -2.33363010819047E-15   3.32627458562866E-16   1.00000000000000E+00   1.00000000000000E+00
      0.00000000000000E+00   0.00000000000000E+00   2.33173462362676E-15   7.31419464316951E-20   2.33180776557319E-15
      5.73879423178673E-16  -4.67910407714133E-01  -4.67910407714133E-01   0.00000000000000E+00   0.00000000000000E+00
      0.00000000000000E+00   0.00000000000000E+00   0.00000000000000E+00  -4.72063873167370E-16
      2.01104708007253E-02
      0.00000000000000E+00   0.00000000000000E+00   0.00000000000000E+00   0.00000000000000E+00  -2.01906953558094E-15
     -3.19614140131872E-16  -2.33868367571281E-15   3.32562433626331E-16   1.00000000000000E+00   1.00000000000000E+00
      0.00000000000000E+00   0.00000000000000E+00   2.33656207193984E-15   7.31400594438980E-20   2.33663521199928E-15
      5.73669782170430E-16  -4.59779058398549E-01  -4.59779058398549E-01   0.00000000000000E+00   0.00000000000000E+00
      0.00000000000000E+00   0.00000000000000E+00   0.00000000000000E+00  -4.62865773217938E-16
      2.49350713946385E-02
      0.00000000000000E+00   0.00000000000000E+00   0.00000000000000E+00   0.00000000000000E+00  -2.02885264756975E-15
     -3.18924486976375E-16  -2.34777713454612E-15   3.32484450704028E-16   1.00000000000000E+00   1.00000000000000E+00
      0.00000000000000E+00   0.00000000000000E+00   2.34453748252652E-15   7.31378139489855E-20   2.34461062034047E-15
      5.73420459191928E-16  -4.50129857210723E-01  -4.50129857210723E-01   0.00000000000000E+00   0.00000000000000E+00
      0.00000000000000E+00   0.00000000000000E+00   0.00000000000000E+00  -4.51957507047119E-16
      3.06602640994155E-02
      0.00000000000000E+00   0.00000000000000E+00   0.00000000000000E+00   0.00000000000000E+00  -2.03973327207496E-15
     -3.18080041207781E-16  -2.35781331328274E-15   3.32390719070690E-16   1.00000000000000E+00   1.00000000000000E+00
      0.00000000000000E+00   0.00000000000000E+00   2.35101178947960E-15   7.31351400656276E-20   2.35108492461967E-15
      5.73123788362219E-16  -4.38679471801169E-01  -4.38679471801169E-01   0.00000000000000E+00   0.00000000000000E+00
      0.00000000000000E+00   0.00000000000000E+00   0.00000000000000E+00  -4.39023008437332E-16
      3.74541594424175E-02
      0.00000000000000E+00   0.00000000000000E+00   0.00000000000000E+00   0.00000000000000E+00  -2.05598359875178E-15
     -3.17040512101356E-16  -2.37302411085314E-15   3.32277745361942E-16   1.00000000000000E+00   1.00000000000000E+00
      0.00000000000000E+00   0.00000000000000E+00   2.35932224791859E-15   7.31319533180945E-20   2.35939537987191E-15
      5.72770538480375E-16  -4.25091681115165E-01  -4.25091681115165E-01   0.00000000000000E+00   0.00000000000000E+00
      0.00000000000000E+00   0.00000000000000E+00   0.00000000000000E+00  -4.23688811538207E-16
      4.55162485827798E-02
      0.00000000000000E+00   0.00000000000000E+00   0.00000000000000E+00   0.00000000000000E+00  -2.09131687265909E-15
     -3.15752446420713E-16  -2.40706931907981E-15   3.32141114344251E-16   1.00000000000000E+00   1.00000000000000E+00
      0.00000000000000E+00   0.00000000000000E+00   2.36615579019415E-15   7.31281510862418E-20   2.36622891834523E-15
      5.72349544766082E-16  -4.08967502834440E-01  -4.08967502834440E-01   0.00000000000000E+00   0.00000000000000E+00
      0.00000000000000E+00   0.00000000000000E+00   0.00000000000000E+00  -4.05514204685509E-16
      5.50832610293431E-02
      0.00000000000000E+00   0.00000000000000E+00   0.00000000000000E+00   0.00000000000000E+00  -2.15379878689001E-15
     -3.14143999523834E-16  -2.46794278641384E-15   3.31975162270024E-16   1.00000000000000E+00   1.00000000000000E+00