DF-ISE text

Info {
  version   = 1.0
  type      = xyplot
  datasets  = [
    "time"
    "S OuterVoltage" "S InnerVoltage" "S QuasiFermiPotential" "S DisplacementCurrent" "S eCurrent"
    "S hCurrent" "S TotalCurrent" "S Charge" "D OuterVoltage" "D InnerVoltage"
    "D QuasiFermiPotential" "D DisplacementCurrent" "D eCurrent" "D hCurrent" "D TotalCurrent"
    "D Charge" "G OuterVoltage" "G InnerVoltage" "G QuasiFermiPotential" "G DisplacementCurrent"
    "G eCurrent" "G hCurrent" "G TotalCurrent" "G Charge" ]
  functions = [
    Time
    OuterVoltage InnerVoltage QuasiFermiPotential DisplacementCurrent eCurrent
    hCurrent TotalCurrent Charge OuterVoltage InnerVoltage
    QuasiFermiPotential DisplacementCurrent eCurrent hCurrent TotalCurrent
    Charge OuterVoltage InnerVoltage QuasiFermiPotential DisplacementCurrent
    eCurrent hCurrent TotalCurrent Charge ]
}

Data {
      0.00000000000000E+00
      0.00000000000000E+00   0.00000000000000E+00   0.00000000000000E+00   0.00000000000000E+00   4.88832978551338E-19
      2.27666154864593E-34   4.88832978551338E-19   4.03234979523853E-16   0.00000000000000E+00   0.00000000000000E+00
      0.00000000000000E+00   0.00000000000000E+00  -5.54268560089507E-38   2.78740340515612E-34   2.78684913659603E-34
      5.79326646821339E-16  -5.00000000000000E-01  -5.00000000000000E-01   0.00000000000000E+00   0.00000000000000E+00
      0.00000000000000E+00   0.00000000000000E+00   0.00000000000000E+00  -3.11736413803391E-16
      0.00000000000000E+00
      0.00000000000000E+00   0.00000000000000E+00   0.00000000000000E+00   0.00000000000000E+00  -9.78847744837463E-19
     -7.49704409590336E-33  -9.78847744837470E-19   4.03234979518422E-16   0.00000000000000E+00   0.00000000000000E+00
      0.00000000000000E+00   0.00000000000000E+00  -1.94215234928984E-18  -7.50539604051159E-33  -1.94215234928985E-18
      5.79326646807518E-16  -5.00000000000000E-01  -5.00000000000000E-01   0.00000000000000E+00   0.00000000000000E+00
      0.00000000000000E+00   0.00000000000000E+00   0.00000000000000E+00  -3.11736413803469E-16
      1.00000000000000E-03
      0.00000000000000E+00   0.00000000000000E+00   0.00000000000000E+00   0.00000000000000E+00  -1.48122522133019E-18
     -1.27528787789935E-21  -1.48250050920809E-18   4.03032848319469E-16   1.00000000000000E-03   1.00000000000000E-03
      0.00000000000000E+00   0.00000000000000E+00   2.90980946694242E-18   2.20419808015915E-22   2.91002988675044E-18
      5.79483875746926E-16  -5.00000000000000E-01  -5.00000000000000E-01   0.00000000000000E+00   0.00000000000000E+00
      0.00000000000000E+00   0.00000000000000E+00   0.00000000000000E+00  -3.12686510407889E-16
      2.17333333333333E-03
      0.00000000000000E+00   0.00000000000000E+00   0.00000000000000E+00   0.00000000000000E+00  -2.96059827716430E-18
     -2.82858286172096E-21  -2.96342686002602E-18   4.02794970771326E-16   2.17333333333333E-03   2.17333333333333E-03
      0.00000000000000E+00   0.00000000000000E+00   3.09670881761377E-21   4.74670758852742E-22   3.57137957646651E-21
      5.79667811842110E-16  -5.00000000000000E-01  -5.00000000000000E-01   0.00000000000000E+00   0.00000000000000E+00
      0.00000000000000E+00   0.00000000000000E+00   0.00000000000000E+00  -3.13803507190755E-16
      3.56568888888889E-03
      0.00000000000000E+00   0.00000000000000E+00   0.00000000000000E+00   0.00000000000000E+00  -3.95594840094476E-18
     -4.75495968903800E-21  -3.96070336063379E-18   4.02511717262179E-16   3.56568888888889E-03   3.56568888888889E-03
      0.00000000000000E+00   0.00000000000000E+00   3.88752253205984E-18   7.70485116611123E-22   3.88829301717645E-18
      5.79885341286744E-16  -5.00000000000000E-01  -5.00000000000000E-01   0.00000000000000E+00   0.00000000000000E+00
      0.00000000000000E+00   0.00000000000000E+00   0.00000000000000E+00  -3.15132022570928E-16
      5.21795081481481E-03
      0.00000000000000E+00   0.00000000000000E+00   0.00000000000000E+00   0.00000000000000E+00  -3.49949417956613E-18
     -7.16380652338021E-21  -3.50665798608951E-18   4.02174259317029E-16   5.21795081481481E-03   5.21795081481481E-03
      0.00000000000000E+00   0.00000000000000E+00   2.42363649643637E-18   1.11359187810133E-21   2.42475008831447E-18
      5.80142471309531E-16  -5.00000000000000E-01  -5.00000000000000E-01   0.00000000000000E+00   0.00000000000000E+00
      0.00000000000000E+00   0.00000000000000E+00   0.00000000000000E+00  -3.16712613662938E-16
      7.17863496691358E-03
      0.00000000000000E+00   0.00000000000000E+00   0.00000000000000E+00   0.00000000000000E+00  -6.13849814682201E-18
     -1.02055641672465E-20  -6.14870371098926E-18   4.01772000604705E-16   7.17863496691358E-03   7.17863496691358E-03
      0.00000000000000E+00   0.00000000000000E+00   2.75312220260385E-18   1.51019516140900E-21   2.75463239776526E-18
      5.80446249372746E-16  -5.00000000000000E-01  -5.00000000000000E-01   0.00000000000000E+00   0.00000000000000E+00
      0.00000000000000E+00   0.00000000000000E+00   0.00000000000000E+00  -3.18593740638099E-16
      9.50531349407078E-03
      0.00000000000000E+00   0.00000000000000E+00   0.00000000000000E+00   0.00000000000000E+00  -2.46907488018588E-18
     -1.40913328755523E-20  -2.48316621306143E-18   4.01292215109620E-16   9.50531349407078E-03   9.50531349407078E-03
      0.00000000000000E+00   0.00000000000000E+00   7.39949990022564E-18   1.96695401835594E-21   7.40146685424399E-18
      5.80804941072241E-16  -5.00000000000000E-01  -5.00000000000000E-01   0.00000000000000E+00   0.00000000000000E+00
      0.00000000000000E+00   0.00000000000000E+00   0.00000000000000E+00  -3.20833310023957E-16
      1.22663053462973E-02
      0.00000000000000E+00   0.00000000000000E+00   0.00000000000000E+00   0.00000000000000E+00  -1.81801744313462E-18
     -1.91239640244996E-20  -1.83714140715912E-18   4.00719620970593E-16   1.22663053462973E-02   1.22663053462973E-02
      0.00000000000000E+00   0.00000000000000E+00   4.67810221138513E-18   2.49101482132847E-21   4.68059322620646E-18
      5.81228250506638E-16  -5.00000000000000E-01  -5.00000000000000E-01   0.00000000000000E+00   0.00000000000000E+00
      0.00000000000000E+00   0.00000000000000E+00   0.00000000000000E+00  -3.23500469893973E-16
      1.55426823442728E-02
      0.00000000000000E+00   0.00000000000000E+00   0.00000000000000E+00   0.00000000000000E+00  -8.55389049092553E-18
     -2.57488233230691E-20  -8.57963931424860E-18   4.00035873689496E-16   1.55426823442728E-02   1.55426823442728E-02
      0.00000000000000E+00   0.00000000000000E+00   4.89411341584260E-18   3.09008573464506E-21   4.89720350157724E-18
      5.81727588267881E-16  -5.00000000000000E-01  -5.00000000000000E-01   0.00000000000000E+00   0.00000000000000E+00
      0.00000000000000E+00   0.00000000000000E+00   0.00000000000000E+00  -3.26677714806813E-16
      1.94306497152037E-02
      0.00000000000000E+00   0.00000000000000E+00   0.00000000000000E+00   0.00000000000000E+00  -9.23654837958982E-18
     -3.46388596126194E-20  -9.27118723920244E-18   3.99218997596836E-16   1.94306497152037E-02   1.94306497152037E-02
      0.00000000000000E+00   0.00000000000000E+00   6.21498319294293E-18   3.77275244706701E-21   6.21875594539000E-18
      5.82316432621105E-16  -5.00000000000000E-01  -5.00000000000000E-01   0.00000000000000E+00   0.00000000000000E+00
      0.00000000000000E+00   0.00000000000000E+00   0.00000000000000E+00  -3.30463211199709E-16
      2.40443709953751E-02
      0.00000000000000E+00   0.00000000000000E+00   0.00000000000000E+00   0.00000000000000E+00  -1.93800102876518E-17
     -4.68420751891098E-20  -1.94268523628409E-17   3.98242747551830E-16   2.40443709953751E-02   2.40443709953751E-02
      0.00000000000000E+00   0.00000000000000E+00  -8.09049464476674E-19   4.54905914124294E-21  -8.04500405335432E-19
      5.83010806058575E-16  -5.00000000000000E-01  -5.00000000000000E-01   0.00000000000000E+00   0.00000000000000E+00
      0.00000000000000E+00   0.00000000000000E+00   0.00000000000000E+00  -3.34973363311876E-16
      2.95193202478451E-02
      0.00000000000000E+00   0.00000000000000E+00   0.00000000000000E+00   0.00000000000000E+00  -3.93274996429071E-17
     -6.40454880143147E-20  -3.93915451309214E-17   3.97075970777217E-16   2.95193202478451E-02   2.95193202478451E-02
      0.00000000000000E+00   0.00000000000000E+00  -8.25687388129659E-18   5.43176182884541E-21  -8.25144211946775E-18
      5.83829973662702E-16  -5.00000000000000E-01  -5.00000000000000E-01   0.00000000000000E+00   0.00000000000000E+00
      0.00000000000000E+00   0.00000000000000E+00   0.00000000000000E+00  -3.40345321327290E-16
      3.60162600274429E-02
      0.00000000000000E+00   0.00000000000000E+00   0.00000000000000E+00   0.00000000000000E+00  -4.91169691792942E-17
     -8.90664196904915E-20  -4.92060355989847E-17   3.95681999859298E-16   3.60162600274429E-02   3.60162600274429E-02
      0.00000000000000E+00   0.00000000000000E+00  -1.73791076771896E-17   6.43829878377680E-21  -1.73726693784058E-17
      5.84797432922615E-16  -5.00000000000000E-01  -5.00000000000000E-01   0.00000000000000E+00   0.00000000000000E+00
      0.00000000000000E+00   0.00000000000000E+00   0.00000000000000E+00  -3.46739299600251E-16
      4.37259618992322E-02
      0.00000000000000E+00   0.00000000000000E+00   0.00000000000000E+00   0.00000000000000E+00  -2.14060610105718E-17
     -1.26801819449994E-19  -2.15328628300218E-17   3.94018303671889E-16   4.37259618992322E-02   4.37259618992322E-02
      0.00000000000000E+00   0.00000000000000E+00   1.93639073006095E-17   7.59426499891830E-21   1.93715015656084E-17
      5.85942464935153E-16  -5.00000000000000E-01  -5.00000000000000E-01   0.00000000000000E+00   0.00000000000000E+00
      0.00000000000000E+00   0.00000000000000E+00   0.00000000000000E+00  -3.54339791095602E-16
      5.27720120954650E-02
      0.00000000000000E+00   0.00000000000000E+00   0.00000000000000E+00   0.00000000000000E+00  -2.40482797228466E-17
     -1.85370741284550E-19  -2.42336504641311E-17   3.92058918477144E-16   5.27720120954650E-02   5.27720120954650E-02
      0.00000000000000E+00   0.00000000000000E+00   2.56737976519800E-17   8.92348792531304E-21   2.56827211399053E-17
      5.87287208301716E-16  -5.00000000000000E-01  -5.00000000000000E-01   0.00000000000000E+00   0.00000000000000E+00
      0.00000000000000E+00   0.00000000000000E+00   0.00000000000000E+00  -3.63253590728293E-16
      6.33860443257115E-02
      0.00000000000000E+00   0.00000000000000E+00   0.00000000000000E+00   0.00000000000000E+00  -2.46649836695697E-17
     -2.80322899449159E-19  -2.49453065690189E-17   3.89758897973545E-16   6.33860443257115E-02   6.33860443257115E-02
      0.00000000000000E+00   0.00000000000000E+00   2.52642712688615E-17   1.04791341732847E-20   2.52747504030348E-17
      5.88875001491555E-16  -5.00000000000000E-01  -5.00000000000000E-01   0.00000000000000E+00   0.00000000000000E+00
      0.00000000000000E+00   0.00000000000000E+00   0.00000000000000E+00  -3.73673035093053E-16
      7.58398421425341E-02
      0.00000000000000E+00   0.00000000000000E+00   0.00000000000000E+00   0.00000000000000E+00  -3.71822775254688E-17
     -4.41782709661001E-19  -3.76240602351298E-17   3.87073060903256E-16   7.58398421425341E-02   7.58398421425341E-02
      0.00000000000000E+00   0.00000000000000E+00   3.44031801668066E-17   1.23392679393450E-20   3.44155194347459E-17
      5.90764520406066E-16  -5.00000000000000E-01  -5.00000000000000E-01   0.00000000000000E+00   0.00000000000000E+00
      0.00000000000000E+00   0.00000000000000E+00   0.00000000000000E+00  -3.85791678398366E-16
      9.04522982476059E-02
      0.00000000000000E+00   0.00000000000000E+00   0.00000000000000E+00   0.00000000000000E+00  -6.62511577087279E-17
     -7.30422678853612E-19  -6.69815803875815E-17   3.83962420164458E-16   9.04522982476059E-02   9.04522982476059E-02
      0.00000000000000E+00   0.00000000000000E+00   3.90558517474270E-17   1.46137837836291E-20   3.90704655312107E-17
      5.93038519729430E-16  -5.00000000000000E-01  -5.00000000000000E-01   0.00000000000000E+00   0.00000000000000E+00
      0.00000000000000E+00   0.00000000000000E+00   0.00000000000000E+00  -3.99779182039053E-16
      1.07597580077557E-01
      0.00000000000000E+00   0.00000000000000E+00   0.00000000000000E+00   0.00000000000000E+00  -6.60028406933749E-17
     -1.27175804058205E-18  -6.72745987339570E-17   3.80407832884972E-16   1.07597580077557E-01   1.07597580077557E-01
      0.00000000000000E+00   0.00000000000000E+00   6.35457134394027E-17   1.74459758951328E-20   6.35631594152978E-17
      5.95819580104427E-16  -5.00000000000000E-01  -5.00000000000000E-01   0.00000000000000E+00   0.00000000000000E+00
      0.00000000000000E+00   0.00000000000000E+00   0.00000000000000E+00  -4.15728568867569E-16
      1.27486107000300E-01
      0.00000000000000E+00   0.00000000000000E+00   0.00000000000000E+00   0.00000000000000E+00  -1.07557648757381E-16
     -2.30914799417460E-18  -1.09866796751556E-16   3.76481617077468E-16   1.27486107000300E-01   1.27486107000300E-01
      0.00000000000000E+00   0.00000000000000E+00   6.99830600122473E-17   2.09488229584079E-20   7.00040088352057E-17
      5.99257960713261E-16  -5.00000000000000E-01  -5.00000000000000E-01   0.00000000000000E+00   0.00000000000000E+00
      0.00000000000000E+00   0.00000000000000E+00   0.00000000000000E+00  -4.33352880526834E-16
      1.50556798230682E-01
      0.00000000000000E+00   0.00000000000000E+00   0.00000000000000E+00   0.00000000000000E+00  -1.17677059731901E-16
     -4.29640597555421E-18  -1.21973465707455E-16   3.72312649417182E-16   1.50556798230682E-01   1.50556798230682E-01
      0.00000000000000E+00   0.00000000000000E+00   1.19642173735414E-16   2.51757665051297E-20   1.19667349501919E-16
      6.03635365023459E-16  -5.00000000000000E-01  -5.00000000000000E-01   0.00000000000000E+00   0.00000000000000E+00
      0.00000000000000E+00   0.00000000000000E+00   0.00000000000000E+00  -4.52173924201677E-16
      1.77011190841520E-01
      0.00000000000000E+00   0.00000000000000E+00   0.00000000000000E+00   0.00000000000000E+00  -2.66360485517488E-16
     -7.82021995655933E-18  -2.74180705474047E-16   3.68229292700940E-16   1.77011190841520E-01   1.77011190841520E-01
      0.00000000000000E+00   0.00000000000000E+00   1.44679816109784E-16   2.98194749379634E-20   1.44709635584722E-16
      6.09321938818819E-16  -5.00000000000000E-01  -5.00000000000000E-01   0.00000000000000E+00   0.00000000000000E+00
      0.00000000000000E+00   0.00000000000000E+00   0.00000000000000E+00  -4.70921856595802E-16
      2.07345561035281E-01
      0.00000000000000E+00   0.00000000000000E+00   0.00000000000000E+00   0.00000000000000E+00  -2.63771093046675E-16
     -1.31202164908569E-17  -2.76891309537532E-16   3.64657574280940E-16   2.07345561035281E-01   2.07345561035281E-01
      0.00000000000000E+00   0.00000000000000E+00   2.31860664686883E-16   3.40876950297995E-20   2.31894752381913E-16
      6.16847687566714E-16  -5.00000000000000E-01  -5.00000000000000E-01   0.00000000000000E+00   0.00000000000000E+00
      0.00000000000000E+00   0.00000000000000E+00   0.00000000000000E+00  -4.88004379612563E-16
      2.41724513921543E-01
      0.00000000000000E+00   0.00000000000000E+00   0.00000000000000E+00   0.00000000000000E+00  -4.07781906222775E-16
     -1.92381094170130E-17  -4.27020015639788E-16   3.61985285143348E-16   2.41724513921543E-01   2.41724513921543E-01
      0.00000000000000E+00   0.00000000000000E+00   2.91578162407817E-16   3.69914789903745E-20   2.91615153886807E-16
      6.26516211071706E-16  -5.00000000000000E-01  -5.00000000000000E-01   0.00000000000000E+00   0.00000000000000E+00
      0.00000000000000E+00   0.00000000000000E+00   0.00000000000000E+00  -5.01965456973110E-16
      2.80687327192640E-01
      0.00000000000000E+00   0.00000000000000E+00   0.00000000000000E+00   0.00000000000000E+00  -4.86251534433164E-16
     -2.48981530181051E-17  -5.11149687451269E-16   3.60160433608161E-16   2.80687327192640E-01   2.80687327192640E-01
      0.00000000000000E+00   0.00000000000000E+00   3.75372639210492E-16   3.84099444751347E-20   3.75411049154968E-16
      6.38275814545505E-16  -5.00000000000000E-01  -5.00000000000000E-01   0.00000000000000E+00   0.00000000000000E+00
      0.00000000000000E+00   0.00000000000000E+00   0.00000000000000E+00  -5.13090150982183E-16
      3.24845182233217E-01
      0.00000000000000E+00   0.00000000000000E+00   0.00000000000000E+00   0.00000000000000E+00  -4.61196159084407E-16
     -2.99203190149900E-17  -4.91116478099397E-16   3.58837858251543E-16   3.24845182233217E-01   3.24845182233217E-01
      0.00000000000000E+00   0.00000000000000E+00   4.53703598022984E-16   3.89745300114680E-20   4.53742572552995E-16
      6.51795696414604E-16  -5.00000000000000E-01  -5.00000000000000E-01   0.00000000000000E+00   0.00000000000000E+00
      0.00000000000000E+00   0.00000000000000E+00   0.00000000000000E+00  -5.22778685319226E-16
      3.74890751279205E-01
      0.00000000000000E+00   0.00000000000000E+00   0.00000000000000E+00   0.00000000000000E+00  -4.98455917559331E-16
     -3.43128014457329E-17  -5.32768719005064E-16   3.57827194765992E-16   3.74890751279205E-01   3.74890751279205E-01
      0.00000000000000E+00   0.00000000000000E+00   5.18405418272128E-16   3.92368126364663E-20   5.18444655084765E-16
      6.66926660111882E-16  -5.00000000000000E-01  -5.00000000000000E-01   0.00000000000000E+00   0.00000000000000E+00
      0.00000000000000E+00   0.00000000000000E+00   0.00000000000000E+00  -5.31819659194627E-16
      4.31609062864657E-01
      0.00000000000000E+00   0.00000000000000E+00   0.00000000000000E+00   0.00000000000000E+00  -5.52756243552403E-16
     -3.75660145415642E-17  -5.90322258093967E-16   3.57122795354108E-16   4.31609062864657E-01   4.31609062864657E-01
      0.00000000000000E+00   0.00000000000000E+00   5.74517841090288E-16   3.94268617221203E-20   5.74557267952010E-16
      6.83718589486955E-16  -5.00000000000000E-01  -5.00000000000000E-01   0.00000000000000E+00   0.00000000000000E+00
      0.00000000000000E+00   0.00000000000000E+00   0.00000000000000E+00  -5.40276253012520E-16
      4.95889815994836E-01
      0.00000000000000E+00   0.00000000000000E+00   0.00000000000000E+00   0.00000000000000E+00  -7.60315016756982E-16
     -3.97575927598771E-17  -8.00072609516859E-16   3.56631568587052E-16   4.95889815994836E-01   4.95889815994836E-01
      0.00000000000000E+00   0.00000000000000E+00   6.43340977003736E-16   3.96099360021911E-20   6.43380586939739E-16
      7.02123476004163E-16  -5.00000000000000E-01  -5.00000000000000E-01   0.00000000000000E+00   0.00000000000000E+00
      0.00000000000000E+00   0.00000000000000E+00   0.00000000000000E+00  -5.48505992274135E-16
      5.69598412917441E-01
      0.00000000000000E+00   0.00000000000000E+00   0.00000000000000E+00   0.00000000000000E+00  -7.31096735102770E-16
     -4.13067624050995E-17  -7.72403497507870E-16   3.56235753246705E-16   5.69598412917441E-01   5.69598412917441E-01
      0.00000000000000E+00   0.00000000000000E+00   7.21337494289664E-16   3.98055485332229E-20   7.21377299838197E-16
      7.22114439699555E-16  -5.00000000000000E-01  -5.00000000000000E-01   0.00000000000000E+00   0.00000000000000E+00
      0.00000000000000E+00   0.00000000000000E+00   0.00000000000000E+00  -5.56927294344734E-16
      6.54117604055362E-01
      0.00000000000000E+00   0.00000000000000E+00   0.00000000000000E+00   0.00000000000000E+00  -7.87680769242793E-16
     -4.24939816468964E-17  -8.30174750889689E-16   3.55862487470030E-16   6.54117604055362E-01   6.54117604055362E-01
      0.00000000000000E+00   0.00000000000000E+00   8.19255827609171E-16   4.00175779176307E-20   8.19295845187088E-16
      7.42966836771741E-16  -5.00000000000000E-01  -5.00000000000000E-01   0.00000000000000E+00   0.00000000000000E+00
      0.00000000000000E+00   0.00000000000000E+00   0.00000000000000E+00  -5.65415757435331E-16
      7.51032943226845E-01
      0.00000000000000E+00   0.00000000000000E+00   0.00000000000000E+00   0.00000000000000E+00  -9.30427346488662E-16
     -4.44039443293916E-17  -9.74831290818054E-16   3.55319236995033E-16   7.51032943226845E-01   7.51032943226845E-01
      0.00000000000000E+00   0.00000000000000E+00   9.69703104478390E-16   4.02467418483323E-20   9.69743351220238E-16
      7.63278545119586E-16  -5.00000000000000E-01  -5.00000000000000E-01   0.00000000000000E+00   0.00000000000000E+00
      0.00000000000000E+00   0.00000000000000E+00   0.00000000000000E+00  -5.73889625805194E-16
      8.62162532143478E-01
      0.00000000000000E+00   0.00000000000000E+00   0.00000000000000E+00   0.00000000000000E+00  -1.16434447029834E-15
     -4.64494225336522E-17  -1.21079389283199E-15   3.54679424656603E-16   8.62162532143478E-01   8.62162532143478E-01
      0.00000000000000E+00   0.00000000000000E+00   1.21399281636485E-15   4.04962218955705E-20   1.21403331258674E-15
      7.83236985272129E-16  -5.00000000000000E-01  -5.00000000000000E-01   0.00000000000000E+00   0.00000000000000E+00
      0.00000000000000E+00   0.00000000000000E+00   0.00000000000000E+00  -5.81977794508617E-16
      9.88109399582329E-01
      0.00000000000000E+00   0.00000000000000E+00   0.00000000000000E+00   0.00000000000000E+00  -1.54054962428962E-15
     -4.75276207851693E-17  -1.58807724507479E-15   3.54057047763474E-16   9.88109399582329E-01   9.88109399582329E-01
      0.00000000000000E+00   0.00000000000000E+00   1.58941794895884E-15   4.07630300565034E-20   1.58945871198890E-15
      8.04554626987968E-16  -5.00000000000000E-01  -5.00000000000000E-01   0.00000000000000E+00   0.00000000000000E+00
      0.00000000000000E+00   0.00000000000000E+00   0.00000000000000E+00  -5.90114857345527E-16
      1.00000000000000E+00
      0.00000000000000E+00   0.00000000000000E+00   0.00000000000000E+00   0.00000000000000E+00  -1.59505862164359E-15
     -4.76264844523953E-17  -1.64268510609598E-15   3.53993341388047E-16   1.00000000000000E+00   1.00000000000000E+00
      0.00000000000000E+00   0.00000000000000E+00   1.63514358497417E-15   4.07873333033720E-20   1.63518437230748E-15
      8.06538079311555E-16  -5.00000000000000E-01  -5.00000000000000E-01   0.00000000000000E+00   0.00000000000000E+00
      0.00000000000000E+00   0.00000000000000E+00   0.00000000000000E+00  -5.90891496158686E-16
      0.00000000000000E+00
      0.00000000000000E+00   0.00000000000000E+00   0.00000000000000E+00   0.00000000000000E+00  -1.58152548556808E-15
     -4.76262981833087E-17  -1.62915178375139E-15   3.53993367828479E-16   1.00000000000000E+00   1.00000000000000E+00
      0.00000000000000E+00   0.00000000000000E+00   1.63070736181365E-15   4.07873334783504E-20   1.63074814914713E-15
      8.06538089995584E-16  -5.00000000000000E-01  -5.00000000000000E-01   0.00000000000000E+00   0.00000000000000E+00
      0.00000000000000E+00   0.00000000000000E+00   0.00000000000000E+00  -5.90891395594322E-16
      1.00000000000000E-03
      0.00000000000000E+00   0.00000000000000E+00   0.00000000000000E+00   0.00000000000000E+00  -1.65693372017379E-15
     -4.74878264817354E-17  -1.70442154665552E-15   3.53987101232582E-16   1.00000000000000E+00   1.00000000000000E+00
      0.00000000000000E+00   0.00000000000000E+00   1.62868255847118E-15   4.07870024958560E-20   1.62872334547368E-15
      8.06423900600373E-16  -4.98000000000000E-01  -4.98000000000000E-01   0.00000000000000E+00   0.00000000000000E+00
      0.00000000000000E+00   0.00000000000000E+00   0.00000000000000E+00  -5.88688780295808E-16
      2.16000000000000E-03
      0.00000000000000E+00   0.00000000000000E+00   0.00000000000000E+00   0.00000000000000E+00  -1.58491514647322E-15
     -4.73281435281381E-17  -1.63224329000135E-15   3.53979646340785E-16   1.00000000000000E+00   1.00000000000000E+00
      0.00000000000000E+00   0.00000000000000E+00   1.62505496450738E-15   4.07866151922497E-20   1.62509575112257E-15
      8.06290926442430E-16  -4.95680000000000E-01  -4.95680000000000E-01   0.00000000000000E+00   0.00000000000000E+00
      0.00000000000000E+00   0.00000000000000E+00   0.00000000000000E+00  -5.86136328806865E-16
      3.53653333333333E-03
      0.00000000000000E+00   0.00000000000000E+00   0.00000000000000E+00   0.00000000000000E+00  -1.57957532203731E-15
     -4.71379758172909E-17  -1.62671329785460E-15   3.53970824260778E-16   1.00000000000000E+00   1.00000000000000E+00
      0.00000000000000E+00   0.00000000000000E+00   1.62347548499509E-15   4.07861527814712E-20   1.62351627114787E-15
      8.06132524035404E-16  -4.92926933333333E-01  -4.92926933333333E-01   0.00000000000000E+00   0.00000000000000E+00
      0.00000000000000E+00   0.00000000000000E+00   0.00000000000000E+00  -5.83109942491108E-16
      5.17001955555556E-03
      0.00000000000000E+00   0.00000000000000E+00   0.00000000000000E+00   0.00000000000000E+00  -1.57807301447895E-15
     -4.69118745401163E-17  -1.62498488901907E-15   3.53960315560361E-16   1.00000000000000E+00   1.00000000000000E+00
      0.00000000000000E+00   0.00000000000000E+00   1.62392579478705E-15   4.07855996075730E-20   1.62396658038666E-15
      8.05943669591759E-16  -4.89659960888889E-01  -4.89659960888889E-01   0.00000000000000E+00   0.00000000000000E+00
      0.00000000000000E+00   0.00000000000000E+00   0.00000000000000E+00  -5.79522466295385E-16
      7.10842320592592E-03
      0.00000000000000E+00   0.00000000000000E+00   0.00000000000000E+00   0.00000000000000E+00  -1.58202954602028E-15
     -4.66430615927570E-17  -1.62867260761304E-15   3.53947772914107E-16   1.00000000000000E+00   1.00000000000000E+00
      0.00000000000000E+00   0.00000000000000E+00   1.62397593188140E-15   4.07849368198786E-20   1.62401671681822E-15
      8.05718312369368E-16  -4.85783153588148E-01  -4.85783153588148E-01   0.00000000000000E+00   0.00000000000000E+00
      0.00000000000000E+00   0.00000000000000E+00   0.00000000000000E+00  -5.75270785192613E-16
      9.40866220436543E-03
      0.00000000000000E+00   0.00000000000000E+00   0.00000000000000E+00   0.00000000000000E+00  -1.58839323355401E-15
     -4.63232671725880E-17  -1.63471650072660E-15   3.53932798797789E-16   1.00000000000000E+00   1.00000000000000E+00
      0.00000000000000E+00   0.00000000000000E+00   1.62892217884854E-15   4.07841414816426E-20   1.62896296299002E-15
      8.05449136926221E-16  -4.81182675591269E-01  -4.81182675591269E-01   0.00000000000000E+00   0.00000000000000E+00
      0.00000000000000E+00   0.00000000000000E+00   0.00000000000000E+00  -5.70233075377840E-16
      1.21382791491803E-02
      0.00000000000000E+00   0.00000000000000E+00   0.00000000000000E+00   0.00000000000000E+00  -1.59994564861749E-15
     -4.59424938597796E-17  -1.64588814247727E-15   3.53914922938434E-16   1.00000000000000E+00   1.00000000000000E+00
      0.00000000000000E+00   0.00000000000000E+00   1.62080086660434E-15   4.07831854842286E-20   1.62084164978982E-15
      8.05127269576339E-16  -4.75723441701639E-01  -4.75723441701639E-01   0.00000000000000E+00   0.00000000000000E+00
      0.00000000000000E+00   0.00000000000000E+00   0.00000000000000E+00  -5.64265580977458E-16
      1.53774245903606E-02
      0.00000000000000E+00   0.00000000000000E+00   0.00000000000000E+00   0.00000000000000E+00  -1.58297643889040E-15
     -4.54889549246808E-17  -1.62846539381508E-15   3.53893540042627E-16   1.00000000000000E+00   1.00000000000000E+00
      0.00000000000000E+00   0.00000000000000E+00   1.62629748665876E-15   4.07820339702141E-20   1.62633826869273E-15
      8.04741902015106E-16  -4.69245150819279E-01  -4.69245150819279E-01   0.00000000000000E+00   0.00000000000000E+00
      0.00000000000000E+00   0.00000000000000E+00   0.00000000000000E+00  -5.57198982901749E-16
      1.91780219080122E-02
      0.00000000000000E+00   0.00000000000000E+00   0.00000000000000E+00   0.00000000000000E+00  -1.58249420767059E-15
     -4.49536278748935E-17  -1.62744783554548E-15   3.53868336357492E-16   1.00000000000000E+00   1.00000000000000E+00
      0.00000000000000E+00   0.00000000000000E+00   1.62111615064818E-15   4.07806605782214E-20   1.62115693130876E-15
      8.04285129380383E-16  -4.61643956183976E-01  -4.61643956183976E-01   0.00000000000000E+00   0.00000000000000E+00
      0.00000000000000E+00   0.00000000000000E+00   0.00000000000000E+00  -5.48927215546167E-16
      2.36373894273901E-02
      0.00000000000000E+00   0.00000000000000E+00   0.00000000000000E+00   0.00000000000000E+00  -1.58190756999710E-15
     -4.43209881067656E-17  -1.62622855810386E-15   3.53838629338389E-16   1.00000000000000E+00   1.00000000000000E+00
      0.00000000000000E+00   0.00000000000000E+00   1.62697078812109E-15   4.07790197176394E-20   1.62701156714080E-15
      8.03743012761292E-16  -4.52725221145220E-01  -4.52725221145220E-01   0.00000000000000E+00   0.00000000000000E+00
      0.00000000000000E+00   0.00000000000000E+00   0.00000000000000E+00  -5.39247963296434E-16
      2.88697139834601E-02
      0.00000000000000E+00   0.00000000000000E+00   0.00000000000000E+00   0.00000000000000E+00  -1.58730217220691E-15
     -4.35719102030777E-17  -1.63087408240999E-15   3.53803675677099E-16   1.00000000000000E+00   1.00000000000000E+00
      0.00000000000000E+00   0.00000000000000E+00   1.62551546691311E-15   4.07770567623405E-20   1.62555624396987E-15
      8.03098805839181E-16  -4.42260572033080E-01  -4.42260572033080E-01   0.00000000000000E+00   0.00000000000000E+00
      0.00000000000000E+00   0.00000000000000E+00   0.00000000000000E+00  -5.27925292615792E-16
      3.50089747959156E-02
      0.00000000000000E+00   0.00000000000000E+00   0.00000000000000E+00   0.00000000000000E+00  -1.59661068016535E-15
     -4.26826467600773E-17  -1.63929332692543E-15   3.53762700712619E-16   1.00000000000000E+00   1.00000000000000E+00