DF-ISE text

Info {
  version   = 1.0
  type      = xyplot
  datasets  = [
    "time"
    "S OuterVoltage" "S InnerVoltage" "S QuasiFermiPotential" "S DisplacementCurrent" "S eCurrent"
    "S hCurrent" "S TotalCurrent" "S Charge" "D OuterVoltage" "D InnerVoltage"
    "D QuasiFermiPotential" "D DisplacementCurrent" "D eCurrent" "D hCurrent" "D TotalCurrent"
    "D Charge" "G OuterVoltage" "G InnerVoltage" "G QuasiFermiPotential" "G DisplacementCurrent"
    "G eCurrent" "G hCurrent" "G TotalCurrent" "G Charge" ]
  functions = [
    Time
    OuterVoltage InnerVoltage QuasiFermiPotential DisplacementCurrent eCurrent
    hCurrent TotalCurrent Charge OuterVoltage InnerVoltage
    QuasiFermiPotential DisplacementCurrent eCurrent hCurrent TotalCurrent
    Charge OuterVoltage InnerVoltage QuasiFermiPotential DisplacementCurrent
    eCurrent hCurrent TotalCurrent Charge ]
}

Data {
      0.00000000000000E+00
      0.00000000000000E+00   0.00000000000000E+00   0.00000000000000E+00   0.00000000000000E+00  -4.90278773404136E-19
      2.42832919921281E-34  -4.90278773404136E-19   3.85652627875506E-16   0.00000000000000E+00   0.00000000000000E+00
      0.00000000000000E+00   0.00000000000000E+00   4.86872770202998E-19   2.88776044543141E-34   4.86872770202998E-19
      5.44163910576835E-16  -5.00000000000000E-01  -5.00000000000000E-01   0.00000000000000E+00   0.00000000000000E+00
      0.00000000000000E+00   0.00000000000000E+00   0.00000000000000E+00  -3.72993916341626E-16
      0.00000000000000E+00
      0.00000000000000E+00   0.00000000000000E+00   0.00000000000000E+00   0.00000000000000E+00   1.96138387560271E-18
     -7.51239349625543E-32   1.96138387560264E-18   3.85652627868672E-16   0.00000000000000E+00   0.00000000000000E+00
      0.00000000000000E+00   0.00000000000000E+00   3.40667431697829E-18  -7.53583060315852E-32   3.40667431697822E-18
      5.44163910559903E-16  -5.00000000000000E-01  -5.00000000000000E-01   0.00000000000000E+00   0.00000000000000E+00
      0.00000000000000E+00   0.00000000000000E+00   0.00000000000000E+00  -3.72993916341886E-16
      1.00000000000000E-03
      0.00000000000000E+00   0.00000000000000E+00   0.00000000000000E+00   0.00000000000000E+00   9.45806541047134E-19
     -2.49797686110615E-22   9.45556743361024E-19   3.85618467790545E-16   1.00000000000000E-03   1.00000000000000E-03
      0.00000000000000E+00   0.00000000000000E+00  -9.93207921393857E-19   1.20929826938655E-21  -9.91998623124471E-19
      5.44483487752353E-16  -5.00000000000000E-01  -5.00000000000000E-01   0.00000000000000E+00   0.00000000000000E+00
      0.00000000000000E+00   0.00000000000000E+00   0.00000000000000E+00  -3.73274080674087E-16
      2.17333333333333E-03
      0.00000000000000E+00   0.00000000000000E+00   0.00000000000000E+00   0.00000000000000E+00  -3.44011803514433E-18
     -5.42938619891307E-22  -3.44066097376422E-18   3.85578631170478E-16   2.17333333333333E-03   2.17333333333333E-03
      0.00000000000000E+00   0.00000000000000E+00   3.42768814290717E-18   2.58184739690766E-21   3.43026999030408E-18
      5.44858545900300E-16  -5.00000000000000E-01  -5.00000000000000E-01   0.00000000000000E+00   0.00000000000000E+00
      0.00000000000000E+00   0.00000000000000E+00   0.00000000000000E+00  -3.73601839437363E-16
      3.56568888888889E-03
      0.00000000000000E+00   0.00000000000000E+00   0.00000000000000E+00   0.00000000000000E+00  -1.03188719291132E-18
     -8.90936380471913E-22  -1.03277812929179E-18   3.85531686540427E-16   3.56568888888889E-03   3.56568888888889E-03
      0.00000000000000E+00   0.00000000000000E+00  -1.46038140786437E-18   4.14778162320066E-21  -1.45623362624117E-18
      5.45303719998517E-16  -5.00000000000000E-01  -5.00000000000000E-01   0.00000000000000E+00   0.00000000000000E+00
      0.00000000000000E+00   0.00000000000000E+00   0.00000000000000E+00  -3.73989480230793E-16
      5.21795081481481E-03
      0.00000000000000E+00   0.00000000000000E+00   0.00000000000000E+00   0.00000000000000E+00   1.94134066985327E-18
     -1.30421155384601E-21   1.94003645829942E-18   3.85476417569293E-16   5.21795081481481E-03   5.21795081481481E-03
      0.00000000000000E+00   0.00000000000000E+00  -2.37800908868183E-18   5.92099154903942E-21  -2.37208809713279E-18
      5.45832112618183E-16  -5.00000000000000E-01  -5.00000000000000E-01   0.00000000000000E+00   0.00000000000000E+00
      0.00000000000000E+00   0.00000000000000E+00   0.00000000000000E+00  -3.74447740999652E-16
      7.17863496691358E-03
      0.00000000000000E+00   0.00000000000000E+00   0.00000000000000E+00   0.00000000000000E+00  -4.14425163562053E-18
     -1.79530599936372E-21  -4.14604694161990E-18   3.85411409282572E-16   7.17863496691358E-03   7.17863496691358E-03
      0.00000000000000E+00   0.00000000000000E+00   3.72002738547784E-19   7.91099134917572E-21   3.79913729896960E-19
      5.46459257957549E-16  -5.00000000000000E-01  -5.00000000000000E-01   0.00000000000000E+00   0.00000000000000E+00
      0.00000000000000E+00   0.00000000000000E+00   0.00000000000000E+00  -3.74989248807724E-16
      9.50531349407078E-03
      0.00000000000000E+00   0.00000000000000E+00   0.00000000000000E+00   0.00000000000000E+00  -5.54785214699392E-18
     -2.37942274413934E-21  -5.55023156973805E-18   3.85335012354681E-16   9.50531349407078E-03   9.50531349407078E-03
      0.00000000000000E+00   0.00000000000000E+00   4.35525967015152E-18   1.01204804383394E-20   4.36538015058985E-18
      5.47203557723855E-16  -5.00000000000000E-01  -5.00000000000000E-01   0.00000000000000E+00   0.00000000000000E+00
      0.00000000000000E+00   0.00000000000000E+00   0.00000000000000E+00  -3.75628864728981E-16
      1.22663053462973E-02
      0.00000000000000E+00   0.00000000000000E+00   0.00000000000000E+00   0.00000000000000E+00  -1.29210421809247E-18
     -3.07516388053619E-21  -1.29517938197300E-18   3.85245296861265E-16   1.22663053462973E-02   1.22663053462973E-02
      0.00000000000000E+00   0.00000000000000E+00  -3.02870520827661E-18   1.25424456608529E-20  -3.01616276261576E-18
      5.48086785446951E-16  -5.00000000000000E-01  -5.00000000000000E-01   0.00000000000000E+00   0.00000000000000E+00
      0.00000000000000E+00   0.00000000000000E+00   0.00000000000000E+00  -3.76384106977802E-16
      1.55426823442728E-02
      0.00000000000000E+00   0.00000000000000E+00   0.00000000000000E+00   0.00000000000000E+00  -4.99378604665655E-18
     -3.90567688469663E-21  -4.99769172354124E-18   3.85139977240752E-16   1.55426823442728E-02   1.55426823442728E-02
      0.00000000000000E+00   0.00000000000000E+00  -2.24611072823677E-18   1.51569377975700E-20  -2.23095379043920E-18
      5.49134651371752E-16  -5.00000000000000E-01  -5.00000000000000E-01   0.00000000000000E+00   0.00000000000000E+00
      0.00000000000000E+00   0.00000000000000E+00   0.00000000000000E+00  -3.77275728921829E-16
      1.94306497152037E-02
      0.00000000000000E+00   0.00000000000000E+00   0.00000000000000E+00   0.00000000000000E+00  -6.64012575274736E-20
     -4.90035654256791E-21  -7.13016140700415E-20   3.85016303542971E-16   1.94306497152037E-02   1.94306497152037E-02
      0.00000000000000E+00   0.00000000000000E+00   5.53787678556566E-18   1.79279907039593E-20   5.55580477626962E-18
      5.50377433668852E-16  -5.00000000000000E-01  -5.00000000000000E-01   0.00000000000000E+00   0.00000000000000E+00
      0.00000000000000E+00   0.00000000000000E+00   0.00000000000000E+00  -3.78328478392563E-16
      2.40443709953751E-02
      0.00000000000000E+00   0.00000000000000E+00   0.00000000000000E+00   0.00000000000000E+00  -6.00981354239819E-18
     -6.09761636518881E-21  -6.01591115876338E-18   3.84870880750888E-16   2.40443709953751E-02   2.40443709953751E-02
      0.00000000000000E+00   0.00000000000000E+00  -1.65720031863688E-18   2.08013059217419E-20  -1.63639901271513E-18
      5.51850647686696E-16  -5.00000000000000E-01  -5.00000000000000E-01   0.00000000000000E+00   0.00000000000000E+00
      0.00000000000000E+00   0.00000000000000E+00   0.00000000000000E+00  -3.79572193438514E-16
      2.95193202478451E-02
      0.00000000000000E+00   0.00000000000000E+00   0.00000000000000E+00   0.00000000000000E+00  -6.31574805299832E-18
     -7.54950115730543E-21  -6.32329755415563E-18   3.84699370103986E-16   2.95193202478451E-02   2.95193202478451E-02
      0.00000000000000E+00   0.00000000000000E+00   5.48829370393863E-18   2.37037080831037E-20   5.51199741202173E-18
      5.53595716154506E-16  -5.00000000000000E-01  -5.00000000000000E-01   0.00000000000000E+00   0.00000000000000E+00
      0.00000000000000E+00   0.00000000000000E+00   0.00000000000000E+00  -3.81043420521924E-16
      3.60162600274429E-02
      0.00000000000000E+00   0.00000000000000E+00   0.00000000000000E+00   0.00000000000000E+00  -2.18963065213348E-18
     -9.32973104253851E-21  -2.19896038317602E-18   3.84495978168431E-16   3.60162600274429E-02   3.60162600274429E-02
      0.00000000000000E+00   0.00000000000000E+00   1.91089844138784E-18   2.65455390784458E-20   1.93744398046628E-18
      5.55660554314178E-16  -5.00000000000000E-01  -5.00000000000000E-01   0.00000000000000E+00   0.00000000000000E+00
      0.00000000000000E+00   0.00000000000000E+00   0.00000000000000E+00  -3.82787926202113E-16
      4.37259618992322E-02
      0.00000000000000E+00   0.00000000000000E+00   0.00000000000000E+00   0.00000000000000E+00  -6.96883629876138E-18
     -1.15479743130769E-20  -6.98038427307445E-18   3.84252601282263E-16   4.37259618992322E-02   4.37259618992322E-02
      0.00000000000000E+00   0.00000000000000E+00   3.95200483146088E-18   2.92271521086139E-20   3.98123198356949E-18
      5.58099947960839E-16  -5.00000000000000E-01  -5.00000000000000E-01   0.00000000000000E+00   0.00000000000000E+00
      0.00000000000000E+00   0.00000000000000E+00   0.00000000000000E+00  -3.84864618525218E-16
      5.28748081204222E-02
      0.00000000000000E+00   0.00000000000000E+00   0.00000000000000E+00   0.00000000000000E+00  -7.97465090961422E-18
     -1.43761383465214E-20  -7.98902704796075E-18   3.83957380216850E-16   5.28748081204222E-02   5.28748081204222E-02
      0.00000000000000E+00   0.00000000000000E+00   3.26060427773781E-18   3.16499386365226E-20   3.29225421637434E-18
      5.60975502817343E-16  -5.00000000000000E-01  -5.00000000000000E-01   0.00000000000000E+00   0.00000000000000E+00
      0.00000000000000E+00   0.00000000000000E+00   0.00000000000000E+00  -3.87351823452667E-16
      6.36094543532852E-02
      0.00000000000000E+00   0.00000000000000E+00   0.00000000000000E+00   0.00000000000000E+00  -4.55707880982541E-18
     -1.80536591838370E-20  -4.57513246900924E-18   3.83596525434517E-16   6.36094543532852E-02   6.36094543532852E-02
      0.00000000000000E+00   0.00000000000000E+00   2.10754671036426E-18   3.37114219616635E-20   2.14125813232592E-18
      5.64317128584802E-16  -5.00000000000000E-01  -5.00000000000000E-01   0.00000000000000E+00   0.00000000000000E+00
      0.00000000000000E+00   0.00000000000000E+00   0.00000000000000E+00  -3.90323086686980E-16
      7.62047725998443E-02
      0.00000000000000E+00   0.00000000000000E+00   0.00000000000000E+00   0.00000000000000E+00  -5.11632357201232E-18
     -2.30304140085699E-20  -5.13935398602089E-18   3.83144755486090E-16   7.62047725998443E-02   7.62047725998443E-02
      0.00000000000000E+00   0.00000000000000E+00   3.45246353205419E-18   3.53746471639524E-20   3.48783817921815E-18
      5.68185172794372E-16  -5.00000000000000E-01  -5.00000000000000E-01   0.00000000000000E+00   0.00000000000000E+00
      0.00000000000000E+00   0.00000000000000E+00   0.00000000000000E+00  -3.93914432428342E-16
      9.09832793424738E-02
      0.00000000000000E+00   0.00000000000000E+00   0.00000000000000E+00   0.00000000000000E+00  -1.26415664583734E-17
     -3.01054829371019E-20  -1.26716719413105E-17   3.82563514039771E-16   9.09832793424738E-02   9.09832793424738E-02
      0.00000000000000E+00   0.00000000000000E+00   4.26899651455304E-18   3.66409205955948E-20   4.30563743514863E-18
      5.72640263935035E-16  -5.00000000000000E-01  -5.00000000000000E-01   0.00000000000000E+00   0.00000000000000E+00
      0.00000000000000E+00   0.00000000000000E+00   0.00000000000000E+00  -3.98318864221259E-16
      1.08323393920492E-01
      0.00000000000000E+00   0.00000000000000E+00   0.00000000000000E+00   0.00000000000000E+00  -8.53307195612756E-18
     -4.07513074032673E-20  -8.57382326353083E-18   3.81795788389994E-16   1.08323393920492E-01   1.08323393920492E-01
      0.00000000000000E+00   0.00000000000000E+00   7.93771789329618E-18   3.75489629913077E-20   7.97526685628749E-18
      5.77741383686768E-16  -5.00000000000000E-01  -5.00000000000000E-01   0.00000000000000E+00   0.00000000000000E+00
      0.00000000000000E+00   0.00000000000000E+00   0.00000000000000E+00  -4.03806855987917E-16
      1.28669128358701E-01
      0.00000000000000E+00   0.00000000000000E+00   0.00000000000000E+00   0.00000000000000E+00  -3.19593400812900E-17
     -5.77640270030682E-20  -3.20171041082930E-17   3.80763463423078E-16   1.28669128358701E-01   1.28669128358701E-01
      0.00000000000000E+00   0.00000000000000E+00   6.04107791605519E-18   3.81650655332500E-20   6.07924298158844E-18
      5.83547789732719E-16  -5.00000000000000E-01  -5.00000000000000E-01   0.00000000000000E+00   0.00000000000000E+00
      0.00000000000000E+00   0.00000000000000E+00   0.00000000000000E+00  -4.10737053429408E-16
      1.52541456766199E-01
      0.00000000000000E+00   0.00000000000000E+00   0.00000000000000E+00   0.00000000000000E+00  -1.41706796898355E-17
     -8.65722690249679E-20  -1.42572519588605E-17   3.79374192095442E-16   1.52541456766199E-01   1.52541456766199E-01
      0.00000000000000E+00   0.00000000000000E+00   1.78963269527657E-17   3.85672569086680E-20   1.79348942096743E-17
      5.90130622285161E-16  -5.00000000000000E-01  -5.00000000000000E-01   0.00000000000000E+00   0.00000000000000E+00
      0.00000000000000E+00   0.00000000000000E+00   0.00000000000000E+00  -4.19530508669300E-16
      1.80233357718896E-01
      0.00000000000000E+00   0.00000000000000E+00   0.00000000000000E+00   0.00000000000000E+00  -3.12465001908424E-17
     -1.37098086962086E-19  -3.13835982778045E-17   3.77567889342848E-16   1.80233357718896E-01   1.80233357718896E-01
      0.00000000000000E+00   0.00000000000000E+00   2.00529771565217E-17   3.88267477150619E-20   2.00918039042367E-17
      5.97515169269549E-16  -5.00000000000000E-01  -5.00000000000000E-01   0.00000000000000E+00   0.00000000000000E+00
      0.00000000000000E+00   0.00000000000000E+00   0.00000000000000E+00  -4.30447642801911E-16
      2.12355962824025E-01
      0.00000000000000E+00   0.00000000000000E+00   0.00000000000000E+00   0.00000000000000E+00  -4.13965064183649E-17
     -2.28153966225149E-19  -4.16246603845900E-17   3.75327602871273E-16   2.12355962824025E-01   2.12355962824025E-01
      0.00000000000000E+00   0.00000000000000E+00   2.57743344128730E-17   3.90037371109785E-20   2.58133381499840E-17
      6.05862214913312E-16  -5.00000000000000E-01  -5.00000000000000E-01   0.00000000000000E+00   0.00000000000000E+00
      0.00000000000000E+00   0.00000000000000E+00   0.00000000000000E+00  -4.43626014290538E-16
      2.49618184745975E-01
      0.00000000000000E+00   0.00000000000000E+00   0.00000000000000E+00   0.00000000000000E+00  -3.93499668150829E-17
     -3.91497791255844E-19  -3.97414646063387E-17   3.72734738380740E-16   2.49618184745975E-01   2.49618184745975E-01
      0.00000000000000E+00   0.00000000000000E+00   4.08719889837479E-17   3.91390527260050E-20   4.09111280364739E-17
      6.15426709784909E-16  -5.00000000000000E-01  -5.00000000000000E-01   0.00000000000000E+00   0.00000000000000E+00
      0.00000000000000E+00   0.00000000000000E+00   0.00000000000000E+00  -4.58837442965107E-16
      2.92842362175437E-01
      0.00000000000000E+00   0.00000000000000E+00   0.00000000000000E+00   0.00000000000000E+00  -5.71936352797544E-17
     -6.68245327110452E-19  -5.78618806068648E-17   3.69992845775210E-16   2.92842362175437E-01   2.92842362175437E-01
      0.00000000000000E+00   0.00000000000000E+00   5.39646359113022E-17   3.92596048498408E-20   5.40038955161521E-17
      6.26561201054737E-16  -5.00000000000000E-01  -5.00000000000000E-01   0.00000000000000E+00   0.00000000000000E+00
      0.00000000000000E+00   0.00000000000000E+00   0.00000000000000E+00  -4.75402015790686E-16
      3.42406085627886E-01
      0.00000000000000E+00   0.00000000000000E+00   0.00000000000000E+00   0.00000000000000E+00  -1.37227064650837E-16
     -1.07634961579406E-18  -1.38303414266631E-16   3.67417913532548E-16   3.42406085627886E-01   3.42406085627886E-01
      0.00000000000000E+00   0.00000000000000E+00   7.08159351138960E-17   3.93820432974504E-20   7.08553171571934E-17
      6.39522609415837E-16  -5.00000000000000E-01  -5.00000000000000E-01   0.00000000000000E+00   0.00000000000000E+00
      0.00000000000000E+00   0.00000000000000E+00   0.00000000000000E+00  -4.92150105454694E-16
      3.99239155186695E-01
      0.00000000000000E+00   0.00000000000000E+00   0.00000000000000E+00   0.00000000000000E+00  -9.14458146159117E-17
     -1.57634650688887E-18  -9.30221611228006E-17   3.65248685634544E-16   3.99239155186695E-01   3.99239155186695E-01
      0.00000000000000E+00   0.00000000000000E+00   8.41298245584552E-17   3.95174210067524E-20   8.41693419794620E-17
      6.54633121091119E-16  -5.00000000000000E-01  -5.00000000000000E-01   0.00000000000000E+00   0.00000000000000E+00
      0.00000000000000E+00   0.00000000000000E+00   0.00000000000000E+00  -5.08279952463426E-16
      4.63649967353345E-01
      0.00000000000000E+00   0.00000000000000E+00   0.00000000000000E+00   0.00000000000000E+00  -1.12560516045459E-16
     -2.08220890088447E-18  -1.14642724946343E-16   3.63555986248478E-16   4.63649967353345E-01   4.63649967353345E-01
      0.00000000000000E+00   0.00000000000000E+00   9.91815805320142E-17   3.96696091566375E-20   9.92212501411709E-17
      6.71879651060756E-16  -5.00000000000000E-01  -5.00000000000000E-01   0.00000000000000E+00   0.00000000000000E+00
      0.00000000000000E+00   0.00000000000000E+00   0.00000000000000E+00  -5.23512434666929E-16
      5.36648887808882E-01
      0.00000000000000E+00   0.00000000000000E+00   0.00000000000000E+00   0.00000000000000E+00  -1.30490197303608E-16
     -2.54863873455674E-18  -1.33038836038164E-16   3.62199009395340E-16   5.36648887808882E-01   5.36648887808882E-01
      0.00000000000000E+00   0.00000000000000E+00   1.26278544127486E-16   3.98393301570937E-20   1.26318383457643E-16
      6.91269334952191E-16  -5.00000000000000E-01  -5.00000000000000E-01   0.00000000000000E+00   0.00000000000000E+00
      0.00000000000000E+00   0.00000000000000E+00   0.00000000000000E+00  -5.38404446750559E-16
      6.19380997658490E-01
      0.00000000000000E+00   0.00000000000000E+00   0.00000000000000E+00   0.00000000000000E+00  -1.84296773985796E-16
     -3.06347035102806E-18  -1.87360244336824E-16   3.60853338582107E-16   6.19380997658490E-01   6.19380997658490E-01
      0.00000000000000E+00   0.00000000000000E+00   1.55592603882536E-16   4.00225095143542E-20   1.55632626392051E-16
      7.12634060161560E-16  -5.00000000000000E-01  -5.00000000000000E-01   0.00000000000000E+00   0.00000000000000E+00
      0.00000000000000E+00   0.00000000000000E+00   0.00000000000000E+00  -5.54107965316334E-16
      7.15350245084035E-01
      0.00000000000000E+00   0.00000000000000E+00   0.00000000000000E+00   0.00000000000000E+00  -2.48452929695699E-16
     -3.95264233895154E-18  -2.52405572034650E-16   3.59011220783836E-16   7.15350245084035E-01   7.15350245084035E-01
      0.00000000000000E+00   0.00000000000000E+00   2.26156792957807E-16   4.02212442936529E-20   2.26197014202101E-16
      7.36014996148066E-16  -5.00000000000000E-01  -5.00000000000000E-01   0.00000000000000E+00   0.00000000000000E+00
      0.00000000000000E+00   0.00000000000000E+00   0.00000000000000E+00  -5.72496992633046E-16
      8.25394982131994E-01
      0.00000000000000E+00   0.00000000000000E+00   0.00000000000000E+00   0.00000000000000E+00  -3.52538085414715E-16
     -4.85129442441307E-18  -3.57389379839128E-16   3.57290607912941E-16   8.25394982131994E-01   8.25394982131994E-01
      0.00000000000000E+00   0.00000000000000E+00   3.25351574801086E-16   4.04429082307756E-20   3.25392017709317E-16
      7.60399500120973E-16  -5.00000000000000E-01  -5.00000000000000E-01   0.00000000000000E+00   0.00000000000000E+00
      0.00000000000000E+00   0.00000000000000E+00   0.00000000000000E+00  -5.90143969151975E-16
      9.51579613946987E-01
      0.00000000000000E+00   0.00000000000000E+00   0.00000000000000E+00   0.00000000000000E+00  -4.87001806102864E-16
     -5.61420881580315E-18  -4.92616014918667E-16   3.55709534150809E-16   9.51579613946987E-01   9.51579613946987E-01
      0.00000000000000E+00   0.00000000000000E+00   4.89411512315613E-16   4.06921357775777E-20   4.89452204451390E-16
      7.83817056139964E-16  -5.00000000000000E-01  -5.00000000000000E-01   0.00000000000000E+00   0.00000000000000E+00
      0.00000000000000E+00   0.00000000000000E+00   0.00000000000000E+00  -6.05315897090343E-16
      1.00000000000000E+00
      0.00000000000000E+00   0.00000000000000E+00   0.00000000000000E+00   0.00000000000000E+00  -5.93994230703775E-16
     -5.89844027087551E-18  -5.99892670974651E-16   3.55114831606314E-16   1.00000000000000E+00   1.00000000000000E+00
      0.00000000000000E+00   0.00000000000000E+00   5.93290709588710E-16   4.07855405201187E-20   5.93331495129231E-16
      7.91876558054314E-16  -5.00000000000000E-01  -5.00000000000000E-01   0.00000000000000E+00   0.00000000000000E+00
      0.00000000000000E+00   0.00000000000000E+00   0.00000000000000E+00  -6.10367637413077E-16
      0.00000000000000E+00
      0.00000000000000E+00   0.00000000000000E+00   0.00000000000000E+00   0.00000000000000E+00  -5.88249192046124E-16
     -5.89842628204882E-18  -5.94147618328172E-16   3.55114843925587E-16   1.00000000000000E+00   1.00000000000000E+00
      0.00000000000000E+00   0.00000000000000E+00   5.96182332754086E-16   4.07855406071854E-20   5.96223118294693E-16
      7.91876562748600E-16  -5.00000000000000E-01  -5.00000000000000E-01   0.00000000000000E+00   0.00000000000000E+00
      0.00000000000000E+00   0.00000000000000E+00   0.00000000000000E+00  -6.10367589542111E-16
      1.00000000000000E-03
      0.00000000000000E+00   0.00000000000000E+00   0.00000000000000E+00   0.00000000000000E+00  -5.97109702961311E-16
     -5.83810526133507E-18  -6.02947808222646E-16   3.55080763700921E-16   1.00000000000000E+00   1.00000000000000E+00
      0.00000000000000E+00   0.00000000000000E+00   5.84664143976655E-16   4.07851579521143E-20   5.84704929134607E-16
      7.91732594880990E-16  -4.98000000000000E-01  -4.98000000000000E-01   0.00000000000000E+00   0.00000000000000E+00
      0.00000000000000E+00   0.00000000000000E+00   0.00000000000000E+00  -6.08348812256803E-16
      2.14666666666667E-03
      0.00000000000000E+00   0.00000000000000E+00   0.00000000000000E+00   0.00000000000000E+00  -5.93658658862201E-16
     -5.76836375372607E-18  -5.99427022615927E-16   3.55042218807400E-16   1.00000000000000E+00   1.00000000000000E+00
      0.00000000000000E+00   0.00000000000000E+00   5.84708219625895E-16   4.07847236658633E-20   5.84749004349561E-16
      7.91567376238319E-16  -4.95706666666667E-01  -4.95706666666667E-01   0.00000000000000E+00   0.00000000000000E+00
      0.00000000000000E+00   0.00000000000000E+00   0.00000000000000E+00  -6.06033519973200E-16
      3.50737777777778E-03
      0.00000000000000E+00   0.00000000000000E+00   0.00000000000000E+00   0.00000000000000E+00  -5.96719376399412E-16
     -5.68474574289639E-18  -6.02404122142308E-16   3.54997318986565E-16   1.00000000000000E+00   1.00000000000000E+00
      0.00000000000000E+00   0.00000000000000E+00   5.83060530142272E-16   4.07842151425703E-20   5.83101314357414E-16
      7.91371146411390E-16  -4.92985244444444E-01  -4.92985244444444E-01   0.00000000000000E+00   0.00000000000000E+00
      0.00000000000000E+00   0.00000000000000E+00   0.00000000000000E+00  -6.03285169314459E-16
      5.12208829629630E-03
      0.00000000000000E+00   0.00000000000000E+00   0.00000000000000E+00   0.00000000000000E+00  -6.18201347710955E-16
     -5.58433480536518E-18  -6.23785682516320E-16   3.54945276323331E-16   1.00000000000000E+00   1.00000000000000E+00
      0.00000000000000E+00   0.00000000000000E+00   5.87463423287407E-16   4.07836215241879E-20   5.87504206908931E-16
      7.91138032655857E-16  -4.89755823407407E-01  -4.89755823407407E-01   0.00000000000000E+00   0.00000000000000E+00
      0.00000000000000E+00   0.00000000000000E+00   0.00000000000000E+00  -6.00022544639616E-16
      7.03821144493827E-03
      0.00000000000000E+00   0.00000000000000E+00   0.00000000000000E+00   0.00000000000000E+00  -6.43448455501902E-16
     -5.46355368761621E-18  -6.48912009189518E-16   3.54885361252337E-16   1.00000000000000E+00   1.00000000000000E+00
      0.00000000000000E+00   0.00000000000000E+00   5.83252956463530E-16   4.07829313189951E-20   5.83293739394849E-16
      7.90861021826055E-16  -4.85923577110123E-01  -4.85923577110123E-01   0.00000000000000E+00   0.00000000000000E+00
      0.00000000000000E+00   0.00000000000000E+00   0.00000000000000E+00  -5.96149093269011E-16
      9.31201091466008E-03
      0.00000000000000E+00   0.00000000000000E+00   0.00000000000000E+00   0.00000000000000E+00  -6.85189460544897E-16
     -5.31798988700548E-18  -6.90507450431902E-16   3.54817046982102E-16   1.00000000000000E+00   1.00000000000000E+00
      0.00000000000000E+00   0.00000000000000E+00   5.84687644840499E-16   4.07821331002417E-20   5.84728426973599E-16
      7.90531728418888E-16  -4.81375978170680E-01  -4.81375978170680E-01   0.00000000000000E+00   0.00000000000000E+00
      0.00000000000000E+00   0.00000000000000E+00   0.00000000000000E+00  -5.91549909987899E-16
      1.20102529520633E-02
      0.00000000000000E+00   0.00000000000000E+00   0.00000000000000E+00   0.00000000000000E+00  -5.88533163589447E-16
     -5.14228759564481E-18  -5.93675451185092E-16   3.54740159329197E-16   1.00000000000000E+00   1.00000000000000E+00
      0.00000000000000E+00   0.00000000000000E+00   5.82801606821533E-16   4.07812160485034E-20   5.82842388037582E-16
      7.90140066761898E-16  -4.75979494095873E-01  -4.75979494095873E-01   0.00000000000000E+00   0.00000000000000E+00
      0.00000000000000E+00   0.00000000000000E+00   0.00000000000000E+00  -5.86088481678200E-16
      1.51761902759497E-02
      0.00000000000000E+00   0.00000000000000E+00   0.00000000000000E+00   0.00000000000000E+00  -5.87575996326682E-16
     -4.93209880011293E-18  -5.92508095126795E-16   3.54656425700018E-16   1.00000000000000E+00   1.00000000000000E+00
      0.00000000000000E+00   0.00000000000000E+00   5.80372964024579E-16   4.07801850357288E-20   5.80413744209615E-16
      7.89679207701532E-16  -4.69647619448101E-01  -4.69647619448101E-01   0.00000000000000E+00   0.00000000000000E+00
      0.00000000000000E+00   0.00000000000000E+00   0.00000000000000E+00  -5.79674384171926E-16
      1.88908900693098E-02
      0.00000000000000E+00   0.00000000000000E+00   0.00000000000000E+00   0.00000000000000E+00  -5.91008076029968E-16
     -4.68048425518455E-18  -5.95688560285153E-16   3.54567922985805E-16   1.00000000000000E+00   1.00000000000000E+00
      0.00000000000000E+00   0.00000000000000E+00   5.81590423777989E-16   4.07790401335980E-20   5.81631202818122E-16
      7.89136405607162E-16  -4.62218219861380E-01  -4.62218219861380E-01   0.00000000000000E+00   0.00000000000000E+00
      0.00000000000000E+00   0.00000000000000E+00   0.00000000000000E+00  -5.72140279371837E-16
      2.32494711601857E-02
      0.00000000000000E+00   0.00000000000000E+00   0.00000000000000E+00   0.00000000000000E+00  -5.89030042444787E-16
     -4.37936448989272E-18  -5.93409406934680E-16   3.54478949945059E-16   1.00000000000000E+00   1.00000000000000E+00
      0.00000000000000E+00   0.00000000000000E+00   5.81999783223011E-16   4.07777912088370E-20   5.82040561014220E-16
      7.88496241046901E-16  -4.53501057679629E-01  -4.53501057679629E-01   0.00000000000000E+00   0.00000000000000E+00
      0.00000000000000E+00   0.00000000000000E+00   0.00000000000000E+00  -5.63289039864952E-16
      2.83635396401466E-02
      0.00000000000000E+00   0.00000000000000E+00   0.00000000000000E+00   0.00000000000000E+00  -5.85678004523247E-16
     -4.01992598681802E-18  -5.89697930510065E-16   3.54397355358846E-16   1.00000000000000E+00   1.00000000000000E+00
      0.00000000000000E+00   0.00000000000000E+00   5.66480844506268E-16   4.07764634441823E-20   5.66521620969712E-16
      7.87739755227802E-16  -4.43272920719707E-01  -4.43272920719707E-01   0.00000000000000E+00   0.00000000000000E+00
      0.00000000000000E+00   0.00000000000000E+00   0.00000000000000E+00  -5.52889352619747E-16
      3.43640466566342E-02
      0.00000000000000E+00   0.00000000000000E+00   0.00000000000000E+00   0.00000000000000E+00  -5.68350341137499E-16
     -3.59386100613599E-18  -5.71944202143635E-16   3.54336434881692E-16   1.00000000000000E+00   1.00000000000000E+00
      0.00000000000000E+00   0.00000000000000E+00   5.64080931268886E-16   4.07751041939813E-20   5.64121706373080E-16
      7.86843051235624E-16  -4.31271906686732E-01  -4.31271906686732E-01   0.00000000000000E+00   0.00000000000000E+00
      0.00000000000000E+00   0.00000000000000E+00   0.00000000000000E+00  -5.40672458347631E-16
      4.14046415559796E-02
      0.00000000000000E+00   0.00000000000000E+00   0.00000000000000E+00   0.00000000000000E+00  -5.47214722555893E-16
     -3.09645739850991E-18  -5.50311179954403E-16   3.54316948143180E-16   1.00000000000000E+00   1.00000000000000E+00