DF-ISE text

Info {
  version   = 1.0
  type      = xyplot
  datasets  = [
    "time"
    "S OuterVoltage" "S InnerVoltage" "S QuasiFermiPotential" "S DisplacementCurrent" "S eCurrent"
    "S hCurrent" "S TotalCurrent" "S Charge" "D OuterVoltage" "D InnerVoltage"
    "D QuasiFermiPotential" "D DisplacementCurrent" "D eCurrent" "D hCurrent" "D TotalCurrent"
    "D Charge" "G OuterVoltage" "G InnerVoltage" "G QuasiFermiPotential" "G DisplacementCurrent"
    "G eCurrent" "G hCurrent" "G TotalCurrent" "G Charge" ]
  functions = [
    Time
    OuterVoltage InnerVoltage QuasiFermiPotential DisplacementCurrent eCurrent
    hCurrent TotalCurrent Charge OuterVoltage InnerVoltage
    QuasiFermiPotential DisplacementCurrent eCurrent hCurrent TotalCurrent
    Charge OuterVoltage InnerVoltage QuasiFermiPotential DisplacementCurrent
    eCurrent hCurrent TotalCurrent Charge ]
}

Data {
      0.00000000000000E+00
      0.00000000000000E+00   0.00000000000000E+00   0.00000000000000E+00   0.00000000000000E+00   1.69431639880827E-26
     -1.73442452759503E-33   1.69431622536581E-26   6.27863854399931E-16   0.00000000000000E+00   0.00000000000000E+00
      0.00000000000000E+00   0.00000000000000E+00  -4.12383630725240E-20  -1.73631172365195E-33  -4.12383630725257E-20
      6.80915167508131E-16  -5.00000000000000E-01  -5.00000000000000E-01   0.00000000000000E+00   0.00000000000000E+00
      0.00000000000000E+00   0.00000000000000E+00   0.00000000000000E+00  -2.30780766505837E-16
      0.00000000000000E+00
      0.00000000000000E+00   0.00000000000000E+00   0.00000000000000E+00   0.00000000000000E+00  -2.05593925871448E-19
     -1.24742289864369E-33  -2.05593925871449E-19   6.27863854398814E-16   0.00000000000000E+00   0.00000000000000E+00
      0.00000000000000E+00   0.00000000000000E+00   4.12383536702355E-19  -1.25723466820907E-33   4.12383536702354E-19
      6.80915167508131E-16  -5.00000000000000E-01  -5.00000000000000E-01   0.00000000000000E+00   0.00000000000000E+00
      0.00000000000000E+00   0.00000000000000E+00   0.00000000000000E+00  -2.30780766505738E-16
      1.00000000000000E-03
      0.00000000000000E+00   0.00000000000000E+00   0.00000000000000E+00   0.00000000000000E+00  -4.95685990188549E-18
     -2.25615689034074E-21  -4.95911605877584E-18   6.27599276438772E-16   1.00000000000000E-03   1.00000000000000E-03
      0.00000000000000E+00   0.00000000000000E+00   5.01423730965892E-18   9.35448357400722E-22   5.01517275801632E-18
      6.81058588201173E-16  -5.00000000000000E-01  -5.00000000000000E-01   0.00000000000000E+00   0.00000000000000E+00
      0.00000000000000E+00   0.00000000000000E+00   0.00000000000000E+00  -2.31573009232900E-16
      2.17333333333333E-03
      0.00000000000000E+00   0.00000000000000E+00   0.00000000000000E+00   0.00000000000000E+00  -1.09028101770737E-17
     -4.96292008642621E-21  -1.09077730971601E-17   6.27290888099548E-16   2.17333333333333E-03   2.17333333333333E-03
      0.00000000000000E+00   0.00000000000000E+00   1.10050742555032E-17   2.03752966801435E-21   1.10071117851712E-17
      6.81229011977005E-16  -5.00000000000000E-01  -5.00000000000000E-01   0.00000000000000E+00   0.00000000000000E+00
      0.00000000000000E+00   0.00000000000000E+00   0.00000000000000E+00  -2.32496367211996E-16
      3.56568888888889E-03
      0.00000000000000E+00   0.00000000000000E+00   0.00000000000000E+00   0.00000000000000E+00  -1.77197053561616E-17
     -8.25908037902031E-21  -1.77279644365406E-17   6.26927834916380E-16   3.56568888888889E-03   3.56568888888889E-03
      0.00000000000000E+00   0.00000000000000E+00   1.80263206863635E-17   3.35103656678600E-21   1.80296717229303E-17
      6.81434275146675E-16  -5.00000000000000E-01  -5.00000000000000E-01   0.00000000000000E+00   0.00000000000000E+00
      0.00000000000000E+00   0.00000000000000E+00   0.00000000000000E+00  -2.33583315047370E-16
      5.21795081481481E-03
      0.00000000000000E+00   0.00000000000000E+00   0.00000000000000E+00   0.00000000000000E+00  -2.61495363484465E-17
     -1.22901105091019E-20  -2.61618264589556E-17   6.26501144406865E-16   5.21795081481481E-03   5.21795081481481E-03
      0.00000000000000E+00   0.00000000000000E+00   2.64176317018445E-17   4.91676946349238E-21   2.64225484713080E-17
      6.81682155249168E-16  -5.00000000000000E-01  -5.00000000000000E-01   0.00000000000000E+00   0.00000000000000E+00
      0.00000000000000E+00   0.00000000000000E+00   0.00000000000000E+00  -2.34860688923179E-16
      7.17863496691358E-03
      0.00000000000000E+00   0.00000000000000E+00   0.00000000000000E+00   0.00000000000000E+00  -3.61398655954000E-17
     -1.72436511952706E-20  -3.61571092465953E-17   6.26000700246783E-16   7.17863496691358E-03   7.17863496691358E-03
      0.00000000000000E+00   0.00000000000000E+00   3.60764006565527E-17   6.78298205649112E-21   3.60831836386092E-17
      6.81982423991716E-16  -5.00000000000000E-01  -5.00000000000000E-01   0.00000000000000E+00   0.00000000000000E+00
      0.00000000000000E+00   0.00000000000000E+00   0.00000000000000E+00  -2.36358753505796E-16
      9.50531349407078E-03
      0.00000000000000E+00   0.00000000000000E+00   0.00000000000000E+00   0.00000000000000E+00  -4.88696458137755E-17
     -2.33636440637771E-20  -4.88930094578393E-17   6.25415261819972E-16   9.50531349407078E-03   9.50531349407078E-03
      0.00000000000000E+00   0.00000000000000E+00   4.80254871240055E-17   9.00621054213633E-21   4.80344933345476E-17
      6.82347453077336E-16  -5.00000000000000E-01  -5.00000000000000E-01   0.00000000000000E+00   0.00000000000000E+00
      0.00000000000000E+00   0.00000000000000E+00   0.00000000000000E+00  -2.38111157246886E-16
      1.22663053462973E-02
      0.00000000000000E+00   0.00000000000000E+00   0.00000000000000E+00   0.00000000000000E+00  -6.27559387552640E-17
     -3.09695115478563E-20  -6.27869082668119E-17   6.24732588903080E-16   1.22663053462973E-02   1.22663053462973E-02
      0.00000000000000E+00   0.00000000000000E+00   6.29320224180376E-17   1.16516762018959E-20   6.29436740942395E-17
      6.82793032078216E-16  -5.00000000000000E-01  -5.00000000000000E-01   0.00000000000000E+00   0.00000000000000E+00
      0.00000000000000E+00   0.00000000000000E+00   0.00000000000000E+00  -2.40154586704956E-16
      1.55426823442728E-02
      0.00000000000000E+00   0.00000000000000E+00   0.00000000000000E+00   0.00000000000000E+00  -8.00655129781794E-17
     -4.04819579935778E-20  -8.01059949361729E-17   6.23939732030614E-16   1.55426823442728E-02   1.55426823442728E-02
      0.00000000000000E+00   0.00000000000000E+00   8.07392832654342E-17   1.47927139056901E-20   8.07540759793399E-17
      6.83339476096572E-16  -5.00000000000000E-01  -5.00000000000000E-01   0.00000000000000E+00   0.00000000000000E+00
      0.00000000000000E+00   0.00000000000000E+00   0.00000000000000E+00  -2.42527948958074E-16
      1.94306497152037E-02
      0.00000000000000E+00   0.00000000000000E+00   0.00000000000000E+00   0.00000000000000E+00  -1.02017757373811E-16
     -5.24568953292493E-20  -1.02070214269140E-16   6.23023581533709E-16   1.94306497152037E-02   1.94306497152037E-02
      0.00000000000000E+00   0.00000000000000E+00   1.01328629031977E-16   1.85083336804125E-20   1.01347137365657E-16
      6.84013134321302E-16  -5.00000000000000E-01  -5.00000000000000E-01   0.00000000000000E+00   0.00000000000000E+00
      0.00000000000000E+00   0.00000000000000E+00   0.00000000000000E+00  -2.45270821649593E-16
      2.40443709953751E-02
      0.00000000000000E+00   0.00000000000000E+00   0.00000000000000E+00   0.00000000000000E+00  -1.29866895517425E-16
     -6.76284101533133E-20  -1.29934523927578E-16   6.21971784984855E-16   2.40443709953751E-02   2.40443709953751E-02
      0.00000000000000E+00   0.00000000000000E+00   1.24723606241882E-16   2.28773435348584E-20   1.24746483585417E-16
      6.84848427562053E-16  -5.00000000000000E-01  -5.00000000000000E-01   0.00000000000000E+00   0.00000000000000E+00
      0.00000000000000E+00   0.00000000000000E+00   0.00000000000000E+00  -2.48420868053949E-16
      2.95193202478451E-02
      0.00000000000000E+00   0.00000000000000E+00   0.00000000000000E+00   0.00000000000000E+00  -1.62156126293316E-16
     -8.69589626985476E-20  -1.62243085256015E-16   6.20774186243398E-16   2.95193202478451E-02   2.95193202478451E-02
      0.00000000000000E+00   0.00000000000000E+00   1.53139808470002E-16   2.79668406612694E-20   1.53167775310664E-16
      6.85890584260603E-16  -5.00000000000000E-01  -5.00000000000000E-01   0.00000000000000E+00   0.00000000000000E+00
      0.00000000000000E+00   0.00000000000000E+00   0.00000000000000E+00  -2.52009799438000E-16
      3.60162600274429E-02
      0.00000000000000E+00   0.00000000000000E+00   0.00000000000000E+00   0.00000000000000E+00  -1.94014292079173E-16
     -1.11688780754152E-19  -1.94125980859927E-16   6.19424934717003E-16   3.60162600274429E-02   3.60162600274429E-02
      0.00000000000000E+00   0.00000000000000E+00   1.93859079864907E-16   3.38121806189057E-20   1.93892892045526E-16
      6.87199236254855E-16  -5.00000000000000E-01  -5.00000000000000E-01   0.00000000000000E+00   0.00000000000000E+00
      0.00000000000000E+00   0.00000000000000E+00   0.00000000000000E+00  -2.56057492835968E-16
      4.36393360355042E-02
      0.00000000000000E+00   0.00000000000000E+00   0.00000000000000E+00   0.00000000000000E+00  -2.36937354013094E-16
     -1.42994153890557E-19  -2.37080348166984E-16   6.17941604503175E-16   4.36393360355042E-02   4.36393360355042E-02
      0.00000000000000E+00   0.00000000000000E+00   2.37334527606552E-16   4.03145821087088E-20   2.37374842188661E-16
      6.88833798258459E-16  -5.00000000000000E-01  -5.00000000000000E-01   0.00000000000000E+00   0.00000000000000E+00
      0.00000000000000E+00   0.00000000000000E+00   0.00000000000000E+00  -2.60515165149403E-16
      5.25837452182962E-02
      0.00000000000000E+00   0.00000000000000E+00   0.00000000000000E+00   0.00000000000000E+00  -2.86716870443268E-16
     -1.82462590173759E-19  -2.86899333033441E-16   6.16337401779285E-16   5.25837452182962E-02   5.25837452182962E-02
      0.00000000000000E+00   0.00000000000000E+00   2.87343939182064E-16   4.73401192470293E-20   2.87391279301311E-16
      6.90885747100592E-16  -5.00000000000000E-01  -5.00000000000000E-01   0.00000000000000E+00   0.00000000000000E+00
      0.00000000000000E+00   0.00000000000000E+00   0.00000000000000E+00  -2.65349454374535E-16
      6.30785186594389E-02
      0.00000000000000E+00   0.00000000000000E+00   0.00000000000000E+00   0.00000000000000E+00  -3.43849322202809E-16
     -2.31707505735302E-19  -3.44081029708545E-16   6.14638038905614E-16   6.30785186594389E-02   6.30785186594389E-02
      0.00000000000000E+00   0.00000000000000E+00   3.43783160644006E-16   5.46289876320834E-20   3.43837789631638E-16
      6.93471568847701E-16  -5.00000000000000E-01  -5.00000000000000E-01   0.00000000000000E+00   0.00000000000000E+00
      0.00000000000000E+00   0.00000000000000E+00   0.00000000000000E+00  -2.70492807100050E-16
      7.53923861637129E-02
      0.00000000000000E+00   0.00000000000000E+00   0.00000000000000E+00   0.00000000000000E+00  -4.08119441624265E-16
     -2.91995236194970E-19  -4.08411436860460E-16   6.12883939235538E-16   7.53923861637129E-02   7.53923861637129E-02
      0.00000000000000E+00   0.00000000000000E+00   4.07579411766702E-16   6.17846316769741E-20   4.07641196398379E-16
      6.96736631345887E-16  -5.00000000000000E-01  -5.00000000000000E-01   0.00000000000000E+00   0.00000000000000E+00
      0.00000000000000E+00   0.00000000000000E+00   0.00000000000000E+00  -2.75837827251196E-16
      8.98406573687277E-02
      0.00000000000000E+00   0.00000000000000E+00   0.00000000000000E+00   0.00000000000000E+00  -4.76093520425794E-16
     -3.63635860778088E-19  -4.76457156286572E-16   6.11130277885355E-16   8.98406573687277E-02   8.98406573687277E-02
      0.00000000000000E+00   0.00000000000000E+00   4.76375547307845E-16   6.83130992230948E-20   4.76443860407068E-16
      7.00857078703140E-16  -5.00000000000000E-01  -5.00000000000000E-01   0.00000000000000E+00   0.00000000000000E+00
      0.00000000000000E+00   0.00000000000000E+00   0.00000000000000E+00  -2.81237784101468E-16
      1.06793295582612E-01
      0.00000000000000E+00   0.00000000000000E+00   0.00000000000000E+00   0.00000000000000E+00  -5.47772539817131E-16
     -4.45249126206487E-19  -5.48217788943338E-16   6.09443089917147E-16   1.06793295582612E-01   1.06793295582612E-01
      0.00000000000000E+00   0.00000000000000E+00   5.48333500066737E-16   7.37336052465178E-20   5.48407233671983E-16
      7.06038036189130E-16  -5.00000000000000E-01  -5.00000000000000E-01   0.00000000000000E+00   0.00000000000000E+00
      0.00000000000000E+00   0.00000000000000E+00   0.00000000000000E+00  -2.86518044842575E-16
      1.26684391086902E-01
      0.00000000000000E+00   0.00000000000000E+00   0.00000000000000E+00   0.00000000000000E+00  -6.18306973147644E-16
     -5.33269865451944E-19  -6.18840243013096E-16   6.07890374744442E-16   1.26684391086902E-01   1.26684391086902E-01
      0.00000000000000E+00   0.00000000000000E+00   6.18463900890357E-16   7.77391086539280E-20   6.18541639999011E-16
      7.12507039712373E-16  -5.00000000000000E-01  -5.00000000000000E-01   0.00000000000000E+00   0.00000000000000E+00
      0.00000000000000E+00   0.00000000000000E+00   0.00000000000000E+00  -2.91501112099891E-16
      1.50023276478603E-01
      0.00000000000000E+00   0.00000000000000E+00   0.00000000000000E+00   0.00000000000000E+00  -6.84238263038727E-16
     -6.22196101332774E-19  -6.84860459140060E-16   6.06529722995905E-16   1.50023276478603E-01   1.50023276478603E-01
      0.00000000000000E+00   0.00000000000000E+00   6.84036073022557E-16   8.03223107767524E-20   6.84116395333334E-16
      7.20503891307801E-16  -5.00000000000000E-01  -5.00000000000000E-01   0.00000000000000E+00   0.00000000000000E+00
      0.00000000000000E+00   0.00000000000000E+00   0.00000000000000E+00  -2.96040625082488E-16
      1.77407568671533E-01
      0.00000000000000E+00   0.00000000000000E+00   0.00000000000000E+00   0.00000000000000E+00  -7.41698996632367E-16
     -7.05780814541139E-19  -7.42404777446908E-16   6.05397116828411E-16   1.77407568671533E-01   1.77407568671533E-01
      0.00000000000000E+00   0.00000000000000E+00   7.41905428718568E-16   8.17663447545894E-20   7.41987195063322E-16
      7.30270603008749E-16  -5.00000000000000E-01  -5.00000000000000E-01   0.00000000000000E+00   0.00000000000000E+00
      0.00000000000000E+00   0.00000000000000E+00   0.00000000000000E+00  -3.00051010561228E-16
      2.09538471511236E-01
      0.00000000000000E+00   0.00000000000000E+00   0.00000000000000E+00   0.00000000000000E+00  -7.88934429692720E-16
     -7.78916649418016E-19  -7.89713346342138E-16   6.04499311382583E-16   2.09538471511236E-01   2.09538471511236E-01
      0.00000000000000E+00   0.00000000000000E+00   7.88981516831158E-16   8.24903095208090E-20   7.89064007140679E-16
      7.42042040996499E-16  -5.00000000000000E-01  -5.00000000000000E-01   0.00000000000000E+00   0.00000000000000E+00
      0.00000000000000E+00   0.00000000000000E+00   0.00000000000000E+00  -3.03525731956547E-16
      2.47238730843155E-01
      0.00000000000000E+00   0.00000000000000E+00   0.00000000000000E+00   0.00000000000000E+00  -8.26075128893284E-16
     -8.39839815926185E-19  -8.26914968709210E-16   6.03807045108597E-16   2.47238730843155E-01   2.47238730843155E-01
      0.00000000000000E+00   0.00000000000000E+00   8.27265974093054E-16   8.28649092095111E-20   8.27348839002263E-16
      7.56031991915468E-16  -5.00000000000000E-01  -5.00000000000000E-01   0.00000000000000E+00   0.00000000000000E+00
      0.00000000000000E+00   0.00000000000000E+00   0.00000000000000E+00  -3.06551188597129E-16
      2.91473701792606E-01
      0.00000000000000E+00   0.00000000000000E+00   0.00000000000000E+00   0.00000000000000E+00  -8.57307525466790E-16
     -8.91304687633356E-19  -8.58198830154423E-16   6.03256511811546E-16   2.91473701792606E-01   2.91473701792606E-01
      0.00000000000000E+00   0.00000000000000E+00   8.58025677661777E-16   8.31199117345753E-20   8.58108797573511E-16
      7.72420097128978E-16  -5.00000000000000E-01  -5.00000000000000E-01   0.00000000000000E+00   0.00000000000000E+00
      0.00000000000000E+00   0.00000000000000E+00   0.00000000000000E+00  -3.09295237816786E-16
      3.42786268093970E-01
      0.00000000000000E+00   0.00000000000000E+00   0.00000000000000E+00   0.00000000000000E+00  -8.83974723253761E-16
     -9.37739636630182E-19  -8.84912462890391E-16   6.02783862397819E-16   3.42786268093970E-01   3.42786268093970E-01
      0.00000000000000E+00   0.00000000000000E+00   8.85023221100238E-16   8.33557571504905E-20   8.85106576857388E-16
      7.91159256621247E-16  -5.00000000000000E-01  -5.00000000000000E-01   0.00000000000000E+00   0.00000000000000E+00
      0.00000000000000E+00   0.00000000000000E+00   0.00000000000000E+00  -3.11892462259297E-16
      4.02308845003552E-01
      0.00000000000000E+00   0.00000000000000E+00   0.00000000000000E+00   0.00000000000000E+00  -9.08048541900758E-16
     -9.80270730992632E-19  -9.09028812631750E-16   6.02369196732680E-16   4.02308845003552E-01   4.02308845003552E-01
      0.00000000000000E+00   0.00000000000000E+00   9.08897833247108E-16   8.36059906176323E-20   9.08981439237726E-16
      8.12461528634091E-16  -5.00000000000000E-01  -5.00000000000000E-01   0.00000000000000E+00   0.00000000000000E+00
      0.00000000000000E+00   0.00000000000000E+00   0.00000000000000E+00  -3.14369399258228E-16
      4.72148668577462E-01
      0.00000000000000E+00   0.00000000000000E+00   0.00000000000000E+00   0.00000000000000E+00  -9.27166784593619E-16
     -1.01480666307779E-18  -9.28181591256696E-16   6.02044338038326E-16   4.72148668577462E-01   4.72148668577462E-01
      0.00000000000000E+00   0.00000000000000E+00   9.28524300471569E-16   8.38815697627949E-20   9.28608182041332E-16
      8.37063897062980E-16  -5.00000000000000E-01  -5.00000000000000E-01   0.00000000000000E+00   0.00000000000000E+00
      0.00000000000000E+00   0.00000000000000E+00   0.00000000000000E+00  -3.16673063160790E-16
      5.52231666275544E-01
      0.00000000000000E+00   0.00000000000000E+00   0.00000000000000E+00   0.00000000000000E+00  -9.40460373209763E-16
     -1.03868026796215E-18  -9.41499053477725E-16   6.01825601392177E-16   5.52231666275544E-01   5.52231666275544E-01
      0.00000000000000E+00   0.00000000000000E+00   9.41290312644524E-16   8.41768304306717E-20   9.41374489474955E-16
      8.65054129550041E-16  -5.00000000000000E-01  -5.00000000000000E-01   0.00000000000000E+00   0.00000000000000E+00
      0.00000000000000E+00   0.00000000000000E+00   0.00000000000000E+00  -3.18801188978748E-16
      6.40856850394756E-01
      0.00000000000000E+00   0.00000000000000E+00   0.00000000000000E+00   0.00000000000000E+00  -9.50249157415229E-16
     -1.05629297057902E-18  -9.51305450385808E-16   6.01667139708487E-16   6.40856850394756E-01   6.40856850394756E-01
      0.00000000000000E+00   0.00000000000000E+00   9.49782179873447E-16   8.44795489455555E-20   9.49866659422393E-16
      8.95888916340975E-16  -5.00000000000000E-01  -5.00000000000000E-01   0.00000000000000E+00   0.00000000000000E+00
      0.00000000000000E+00   0.00000000000000E+00   0.00000000000000E+00  -3.20896346718346E-16
      7.44843733094631E-01
      0.00000000000000E+00   0.00000000000000E+00   0.00000000000000E+00   0.00000000000000E+00  -9.57902575633116E-16
     -1.07049585319789E-18  -9.58973071486313E-16   6.01541090137055E-16   7.44843733094631E-01   7.44843733094631E-01
      0.00000000000000E+00   0.00000000000000E+00   9.57087169673362E-16   8.48049218340845E-20   9.57171974595196E-16
      9.31905409216676E-16  -5.00000000000000E-01  -5.00000000000000E-01   0.00000000000000E+00   0.00000000000000E+00
      0.00000000000000E+00   0.00000000000000E+00   0.00000000000000E+00  -3.23185012592293E-16
      8.64082025257154E-01
      0.00000000000000E+00   0.00000000000000E+00   0.00000000000000E+00   0.00000000000000E+00  -9.67172762683966E-16
     -1.08628908314400E-18  -9.68259051767110E-16   6.01402704749301E-16   8.64082025257154E-01   8.64082025257154E-01
      0.00000000000000E+00   0.00000000000000E+00   9.65298499356685E-16   8.51415422164309E-20   9.65383640898902E-16
      9.72882903771343E-16  -5.00000000000000E-01  -5.00000000000000E-01   0.00000000000000E+00   0.00000000000000E+00
      0.00000000000000E+00   0.00000000000000E+00   0.00000000000000E+00  -3.25798054052396E-16
      1.00000000000000E+00
      0.00000000000000E+00   0.00000000000000E+00   0.00000000000000E+00   0.00000000000000E+00  -1.03794520898191E-15
     -1.22864778543285E-18  -1.03917385676734E-15   6.00232939929182E-16   1.00000000000000E+00   1.00000000000000E+00
      0.00000000000000E+00   0.00000000000000E+00   1.03838973887470E-15   8.54765463155045E-20   1.03847521542101E-15
      1.01816539800126E-15  -5.00000000000000E-01  -5.00000000000000E-01   0.00000000000000E+00   0.00000000000000E+00
      0.00000000000000E+00   0.00000000000000E+00   0.00000000000000E+00  -3.31602212454967E-16
      0.00000000000000E+00
      0.00000000000000E+00   0.00000000000000E+00   0.00000000000000E+00   0.00000000000000E+00  -1.03815919644987E-15
     -1.22864795148666E-18  -1.03938784440136E-15   6.00232938639252E-16   1.00000000000000E+00   1.00000000000000E+00
      0.00000000000000E+00   0.00000000000000E+00   1.03863862959777E-15   8.54765463077483E-20   1.03872410614408E-15
      1.01816539695600E-15  -5.00000000000000E-01  -5.00000000000000E-01   0.00000000000000E+00   0.00000000000000E+00
      0.00000000000000E+00   0.00000000000000E+00   0.00000000000000E+00  -3.31602216044884E-16
      1.00000000000000E-03
      0.00000000000000E+00   0.00000000000000E+00   0.00000000000000E+00   0.00000000000000E+00  -1.03705909628997E-15
     -1.22692649957925E-18  -1.03828602278955E-15   6.00230481000643E-16   1.00000000000000E+00   1.00000000000000E+00
      0.00000000000000E+00   0.00000000000000E+00   1.03780208791882E-15   8.54766215676931E-20   1.03788756454038E-15
      1.01813873627827E-15  -4.98000000000000E-01  -4.98000000000000E-01   0.00000000000000E+00   0.00000000000000E+00
      0.00000000000000E+00   0.00000000000000E+00   0.00000000000000E+00  -3.29325227732177E-16
      2.17333333333333E-03
      0.00000000000000E+00   0.00000000000000E+00   0.00000000000000E+00   0.00000000000000E+00  -1.03716200426216E-15
     -1.22492511102441E-18  -1.03838692937318E-15   6.00227403428427E-16   1.00000000000000E+00   1.00000000000000E+00
      0.00000000000000E+00   0.00000000000000E+00   1.03630074630057E-15   8.54767091360004E-20   1.03638622300971E-15
      1.01810733045125E-15  -4.95653333333333E-01  -4.95653333333333E-01   0.00000000000000E+00   0.00000000000000E+00
      0.00000000000000E+00   0.00000000000000E+00   0.00000000000000E+00  -3.26654514572909E-16
      3.58133333333333E-03
      0.00000000000000E+00   0.00000000000000E+00   0.00000000000000E+00   0.00000000000000E+00  -1.03672755799341E-15
     -1.22254995050797E-18  -1.03795010794392E-15   6.00223430552665E-16   1.00000000000000E+00   1.00000000000000E+00
      0.00000000000000E+00   0.00000000000000E+00   1.03499150883635E-15   8.54768131529563E-20   1.03507698564950E-15
      1.01806946446424E-15  -4.92837333333333E-01  -4.92837333333333E-01   0.00000000000000E+00   0.00000000000000E+00
      0.00000000000000E+00   0.00000000000000E+00   0.00000000000000E+00  -3.23451031773788E-16
      5.27093333333333E-03
      0.00000000000000E+00   0.00000000000000E+00   0.00000000000000E+00   0.00000000000000E+00  -1.03650858369051E-15
     -1.21973788169961E-18  -1.03772832157221E-15   6.00218257584567E-16   1.00000000000000E+00   1.00000000000000E+00
      0.00000000000000E+00   0.00000000000000E+00   1.03144064144817E-15   8.54769364330076E-20   1.03152611838460E-15
      1.01802376612609E-15  -4.89458133333333E-01  -4.89458133333333E-01   0.00000000000000E+00   0.00000000000000E+00
      0.00000000000000E+00   0.00000000000000E+00   0.00000000000000E+00  -3.19608845791756E-16
      7.29845333333333E-03
      0.00000000000000E+00   0.00000000000000E+00   0.00000000000000E+00   0.00000000000000E+00  -1.03176750630899E-15
     -1.21641916077214E-18  -1.03298392546977E-15   6.00211454150803E-16   1.00000000000000E+00   1.00000000000000E+00
      0.00000000000000E+00   0.00000000000000E+00   1.03286537832929E-15   8.54770820953357E-20   1.03295085541139E-15
      1.01796854653669E-15  -4.85403093333333E-01  -4.85403093333333E-01   0.00000000000000E+00   0.00000000000000E+00
      0.00000000000000E+00   0.00000000000000E+00   0.00000000000000E+00  -3.15001142098874E-16
      9.70444373333333E-03
      0.00000000000000E+00   0.00000000000000E+00   0.00000000000000E+00   0.00000000000000E+00  -1.02969606732951E-15
     -1.21255927017438E-18  -1.03090862659968E-15   6.00202533229204E-16   1.00000000000000E+00   1.00000000000000E+00
      0.00000000000000E+00   0.00000000000000E+00   1.03138442909862E-15   8.54772517324245E-20   1.03146990635036E-15
      1.01790247800852E-15  -4.80591112533333E-01  -4.80591112533333E-01   0.00000000000000E+00   0.00000000000000E+00
      0.00000000000000E+00   0.00000000000000E+00   0.00000000000000E+00  -3.09537504668602E-16
      1.25595523413333E-02
      0.00000000000000E+00   0.00000000000000E+00   0.00000000000000E+00   0.00000000000000E+00  -1.02812812939327E-15
     -1.20808965110790E-18  -1.02933621904438E-15   6.00190734872803E-16   1.00000000000000E+00   1.00000000000000E+00
      0.00000000000000E+00   0.00000000000000E+00   1.02945870792857E-15   8.54774484417098E-20   1.02954418537701E-15
      1.01782330294263E-15  -4.74880895317333E-01  -4.74880895317333E-01   0.00000000000000E+00   0.00000000000000E+00
      0.00000000000000E+00   0.00000000000000E+00   0.00000000000000E+00  -3.03059960993412E-16
      1.59476145561600E-02
      0.00000000000000E+00   0.00000000000000E+00   0.00000000000000E+00   0.00000000000000E+00  -1.02537390415748E-15
     -1.20294152719675E-18  -1.02657684568468E-15   6.00175003431485E-16   1.00000000000000E+00   1.00000000000000E+00
      0.00000000000000E+00   0.00000000000000E+00   1.02634140587934E-15   8.54776753404850E-20   1.02642688355468E-15
      1.01772824595620E-15  -4.68104770887680E-01  -4.68104770887680E-01   0.00000000000000E+00   0.00000000000000E+00
      0.00000000000000E+00   0.00000000000000E+00   0.00000000000000E+00  -2.95381833919751E-16
      1.99681150510876E-02
      0.00000000000000E+00   0.00000000000000E+00   0.00000000000000E+00   0.00000000000000E+00  -1.02312417127977E-15
     -1.19705079994905E-18  -1.02432122207972E-15   6.00153864116214E-16   1.00000000000000E+00   1.00000000000000E+00
      0.00000000000000E+00   0.00000000000000E+00   1.02394034122739E-15   8.54779353344305E-20   1.02402581916272E-15
      1.01761387533504E-15  -4.60063769897825E-01  -4.60063769897825E-01   0.00000000000000E+00   0.00000000000000E+00
      0.00000000000000E+00   0.00000000000000E+00   0.00000000000000E+00  -2.86282744260127E-16
      2.47391089717351E-02
      0.00000000000000E+00   0.00000000000000E+00   0.00000000000000E+00   0.00000000000000E+00  -1.01960770894284E-15
     -1.19036489606089E-18  -1.02079807383890E-15   6.00125251556684E-16   1.00000000000000E+00   1.00000000000000E+00
      0.00000000000000E+00   0.00000000000000E+00   1.02007094974111E-15   8.54782307840732E-20   1.02015642797189E-15
      1.01747592524119E-15  -4.50521782056530E-01  -4.50521782056530E-01   0.00000000000000E+00   0.00000000000000E+00
      0.00000000000000E+00   0.00000000000000E+00   0.00000000000000E+00  -2.75502840272686E-16
      3.04006884242368E-02
      0.00000000000000E+00   0.00000000000000E+00   0.00000000000000E+00   0.00000000000000E+00  -1.01566844277735E-15
     -1.18285227112721E-18  -1.01685129504847E-15   6.00086268584930E-16   1.00000000000000E+00   1.00000000000000E+00
      0.00000000000000E+00   0.00000000000000E+00   1.01702831564511E-15   8.54785630268125E-20   1.01711379420813E-15
      1.01730906485867E-15  -4.39198623151526E-01  -4.39198623151526E-01   0.00000000000000E+00   0.00000000000000E+00
      0.00000000000000E+00   0.00000000000000E+00   0.00000000000000E+00  -2.62736199635108E-16
      3.71190960412054E-02
      0.00000000000000E+00   0.00000000000000E+00   0.00000000000000E+00   0.00000000000000E+00  -1.01190287517326E-15
     -1.17451472755225E-18  -1.01307738990082E-15   6.00032848219839E-16   1.00000000000000E+00   1.00000000000000E+00
      0.00000000000000E+00   0.00000000000000E+00   1.01337481511356E-15   8.54789317337041E-20   1.01346029404530E-15
      1.01710659961665E-15  -4.25761807917589E-01  -4.25761807917589E-01   0.00000000000000E+00   0.00000000000000E+00
      0.00000000000000E+00   0.00000000000000E+00   0.00000000000000E+00  -2.47623381139897E-16
      4.50916064133415E-02
      0.00000000000000E+00   0.00000000000000E+00   0.00000000000000E+00   0.00000000000000E+00  -1.00759593485062E-15
     -1.16540232566437E-18  -1.00876133717628E-15   5.99959278700700E-16   1.00000000000000E+00   1.00000000000000E+00
      0.00000000000000E+00   0.00000000000000E+00   1.00894506315515E-15   8.54793340939113E-20   1.00903054248924E-15
      1.01686008466435E-15  -4.09816787173317E-01  -4.09816787173317E-01   0.00000000000000E+00   0.00000000000000E+00
      0.00000000000000E+00   0.00000000000000E+00   0.00000000000000E+00  -2.29743192640143E-16
      5.45523187216097E-02
      0.00000000000000E+00   0.00000000000000E+00   0.00000000000000E+00   0.00000000000000E+00  -1.00303323221164E-15
     -1.15562441263771E-18  -1.00418885662428E-15   5.99857574180791E-16   1.00000000000000E+00   1.00000000000000E+00