DF-ISE text

Info {
  version   = 1.0
  type      = xyplot
  datasets  = [
    "time"
    "S OuterVoltage" "S InnerVoltage" "S QuasiFermiPotential" "S DisplacementCurrent" "S eCurrent"
    "S hCurrent" "S TotalCurrent" "S Charge" "D OuterVoltage" "D InnerVoltage"
    "D QuasiFermiPotential" "D DisplacementCurrent" "D eCurrent" "D hCurrent" "D TotalCurrent"
    "D Charge" "G OuterVoltage" "G InnerVoltage" "G QuasiFermiPotential" "G DisplacementCurrent"
    "G eCurrent" "G hCurrent" "G TotalCurrent" "G Charge" ]
  functions = [
    Time
    OuterVoltage InnerVoltage QuasiFermiPotential DisplacementCurrent eCurrent
    hCurrent TotalCurrent Charge OuterVoltage InnerVoltage
    QuasiFermiPotential DisplacementCurrent eCurrent hCurrent TotalCurrent
    Charge OuterVoltage InnerVoltage QuasiFermiPotential DisplacementCurrent
    eCurrent hCurrent TotalCurrent Charge ]
}

Data {
      0.00000000000000E+00
      0.00000000000000E+00   0.00000000000000E+00   0.00000000000000E+00   0.00000000000000E+00   2.89234754820477E-19
     -5.08328564101372E-34   2.89234754820476E-19   6.52721299433728E-16   0.00000000000000E+00   0.00000000000000E+00
      0.00000000000000E+00   0.00000000000000E+00   2.03239603084810E-26  -5.12812592668931E-34   2.03239597956684E-26
      8.45753290298817E-16  -5.00000000000000E-01  -5.00000000000000E-01   0.00000000000000E+00   0.00000000000000E+00
      0.00000000000000E+00   0.00000000000000E+00   0.00000000000000E+00  -3.05208189737222E-16
      0.00000000000000E+00
      0.00000000000000E+00   0.00000000000000E+00   0.00000000000000E+00   0.00000000000000E+00   2.89234446121880E-19
     -8.98447575500190E-35   2.89234446121880E-19   6.52721299433726E-16   0.00000000000000E+00   0.00000000000000E+00
      0.00000000000000E+00   0.00000000000000E+00  -2.88205605466735E-19   5.64310497821072E-36  -2.88205605466735E-19
      8.45753290298792E-16  -5.00000000000000E-01  -5.00000000000000E-01   0.00000000000000E+00   0.00000000000000E+00
      0.00000000000000E+00   0.00000000000000E+00   0.00000000000000E+00  -3.05208189737230E-16
      1.00000000000000E-03
      0.00000000000000E+00   0.00000000000000E+00   0.00000000000000E+00   0.00000000000000E+00  -4.74994231725950E-18
     -1.13579749102133E-21  -4.75107811475052E-18   6.52468398860856E-16   1.00000000000000E-03   1.00000000000000E-03
      0.00000000000000E+00   0.00000000000000E+00   2.44344638503865E-18   7.17955558160769E-22   2.44416434059681E-18
      8.46036291348043E-16  -5.00000000000000E-01  -5.00000000000000E-01   0.00000000000000E+00   0.00000000000000E+00
      0.00000000000000E+00   0.00000000000000E+00   0.00000000000000E+00  -3.05930941667116E-16
      2.17333333333333E-03
      0.00000000000000E+00   0.00000000000000E+00   0.00000000000000E+00   0.00000000000000E+00  -9.78656760958159E-18
     -2.49280002873940E-21  -9.78906040961033E-18   6.52173761313064E-16   2.17333333333333E-03   2.17333333333333E-03
      0.00000000000000E+00   0.00000000000000E+00   9.95990490387147E-18   1.55593659514802E-21   9.96146084046662E-18
      8.46370582705574E-16  -5.00000000000000E-01  -5.00000000000000E-01   0.00000000000000E+00   0.00000000000000E+00
      0.00000000000000E+00   0.00000000000000E+00   0.00000000000000E+00  -3.06773873082199E-16
      3.56568888888889E-03
      0.00000000000000E+00   0.00000000000000E+00   0.00000000000000E+00   0.00000000000000E+00  -1.57683082830674E-17
     -4.13723669436146E-21  -1.57724455197618E-17   6.51827096610277E-16   3.56568888888889E-03   3.56568888888889E-03
      0.00000000000000E+00   0.00000000000000E+00   1.51040306144346E-17   2.54391595114815E-21   1.51065745303857E-17
      8.46770439929317E-16  -5.00000000000000E-01  -5.00000000000000E-01   0.00000000000000E+00   0.00000000000000E+00
      0.00000000000000E+00   0.00000000000000E+00   0.00000000000000E+00  -3.07766934108199E-16
      5.21795081481481E-03
      0.00000000000000E+00   0.00000000000000E+00   0.00000000000000E+00   0.00000000000000E+00  -2.07433498238468E-17
     -6.13670381989376E-21  -2.07494865276667E-17   6.51419956021392E-16   5.21795081481481E-03   5.21795081481481E-03
      0.00000000000000E+00   0.00000000000000E+00   1.93594886657773E-17   3.70687823545651E-21   1.93631955440128E-17
      8.47249443766793E-16  -5.00000000000000E-01  -5.00000000000000E-01   0.00000000000000E+00   0.00000000000000E+00
      0.00000000000000E+00   0.00000000000000E+00   0.00000000000000E+00  -3.08935080354508E-16
      7.17863496691358E-03
      0.00000000000000E+00   0.00000000000000E+00   0.00000000000000E+00   0.00000000000000E+00  -3.03075589174270E-17
     -8.57700362356229E-21  -3.03161359210506E-17   6.50942859945059E-16   7.17863496691358E-03   7.17863496691358E-03
      0.00000000000000E+00   0.00000000000000E+00   3.05481794591300E-17   5.07297510759186E-21   3.05532524342376E-17
      8.47824288215458E-16  -5.00000000000000E-01  -5.00000000000000E-01   0.00000000000000E+00   0.00000000000000E+00
      0.00000000000000E+00   0.00000000000000E+00   0.00000000000000E+00  -3.10306597980096E-16
      9.50531349407078E-03
      0.00000000000000E+00   0.00000000000000E+00   0.00000000000000E+00   0.00000000000000E+00  -3.61688037814799E-17
     -1.15676472747378E-20  -3.61803714287547E-17   6.50385344396719E-16   9.50531349407078E-03   9.50531349407078E-03
      0.00000000000000E+00   0.00000000000000E+00   3.89395650541884E-17   6.67332293820388E-21   3.89462383771266E-17
      8.48515613165271E-16  -5.00000000000000E-01  -5.00000000000000E-01   0.00000000000000E+00   0.00000000000000E+00
      0.00000000000000E+00   0.00000000000000E+00   0.00000000000000E+00  -3.11913144178811E-16
      1.22663053462973E-02
      0.00000000000000E+00   0.00000000000000E+00   0.00000000000000E+00   0.00000000000000E+00  -5.12238383180236E-17
     -1.52490064933931E-20  -5.12390873245170E-17   6.49736121468667E-16   1.22663053462973E-02   1.22663053462973E-02
      0.00000000000000E+00   0.00000000000000E+00   5.17945307689181E-17   8.54132811016944E-21   5.18030720970282E-17
      8.49349102387620E-16  -5.00000000000000E-01  -5.00000000000000E-01   0.00000000000000E+00   0.00000000000000E+00
      0.00000000000000E+00   0.00000000000000E+00   0.00000000000000E+00  -3.13789538844005E-16
      1.55426823442728E-02
      0.00000000000000E+00   0.00000000000000E+00   0.00000000000000E+00   0.00000000000000E+00  -6.43277665808944E-17
     -1.98014058946331E-20  -6.43475679867891E-17   6.48983417771999E-16   1.55426823442728E-02   1.55426823442728E-02
      0.00000000000000E+00   0.00000000000000E+00   6.48757679347950E-17   1.07112120245563E-20   6.48864791468195E-17
      8.50356940339018E-16  -5.00000000000000E-01  -5.00000000000000E-01   0.00000000000000E+00   0.00000000000000E+00
      0.00000000000000E+00   0.00000000000000E+00   0.00000000000000E+00  -3.15973156789741E-16
      1.94306497152037E-02
      0.00000000000000E+00   0.00000000000000E+00   0.00000000000000E+00   0.00000000000000E+00  -7.91582234001585E-17
     -2.54561996229496E-20  -7.91836795997815E-17   6.48115581331169E-16   1.94306497152037E-02   1.94306497152037E-02
      0.00000000000000E+00   0.00000000000000E+00   8.08591294373722E-17   1.32152433908354E-20   8.08723446807631E-17
      8.51579753077861E-16  -5.00000000000000E-01  -5.00000000000000E-01   0.00000000000000E+00   0.00000000000000E+00
      0.00000000000000E+00   0.00000000000000E+00   0.00000000000000E+00  -3.18502706373896E-16
      2.40443709953751E-02
      0.00000000000000E+00   0.00000000000000E+00   0.00000000000000E+00   0.00000000000000E+00  -9.94459448542821E-17
     -3.25082648169497E-20  -9.94784531190990E-17   6.47122065557426E-16   2.40443709953751E-02   2.40443709953751E-02
      0.00000000000000E+00   0.00000000000000E+00   9.75425879289752E-17   1.60789465833676E-20   9.75586668755586E-17
      8.53069181708397E-16  -5.00000000000000E-01  -5.00000000000000E-01   0.00000000000000E+00   0.00000000000000E+00
      0.00000000000000E+00   0.00000000000000E+00   0.00000000000000E+00  -3.21416137042174E-16
      2.95193202478451E-02
      0.00000000000000E+00   0.00000000000000E+00   0.00000000000000E+00   0.00000000000000E+00  -1.24300658533938E-16
     -4.13276664331058E-20  -1.24341986200371E-16   6.45994941908451E-16   2.95193202478451E-02   2.95193202478451E-02
      0.00000000000000E+00   0.00000000000000E+00   1.23915775283744E-16   1.93134511685036E-20   1.23935088734913E-16
      8.54891285764106E-16  -5.00000000000000E-01  -5.00000000000000E-01   0.00000000000000E+00   0.00000000000000E+00
      0.00000000000000E+00   0.00000000000000E+00   0.00000000000000E+00  -3.24747315135066E-16
      3.60162600274429E-02
      0.00000000000000E+00   0.00000000000000E+00   0.00000000000000E+00   0.00000000000000E+00  -1.48470476905491E-16
     -5.23656228750743E-20  -1.48522842528366E-16   6.44731026600217E-16   3.60162600274429E-02   3.60162600274429E-02
      0.00000000000000E+00   0.00000000000000E+00   1.48898792755947E-16   2.29040332749929E-20   1.48921696789222E-16
      8.57130906735334E-16  -5.00000000000000E-01  -5.00000000000000E-01   0.00000000000000E+00   0.00000000000000E+00
      0.00000000000000E+00   0.00000000000000E+00   0.00000000000000E+00  -3.28521269230567E-16
      4.37259618992322E-02
      0.00000000000000E+00   0.00000000000000E+00   0.00000000000000E+00   0.00000000000000E+00  -1.80138230583421E-16
     -6.61447396338103E-20  -1.80204375323055E-16   6.43334645096961E-16   4.37259618992322E-02   4.37259618992322E-02
      0.00000000000000E+00   0.00000000000000E+00   1.83707994217712E-16   2.67948070894374E-20   1.83734789024801E-16
      8.59897058110162E-16  -5.00000000000000E-01  -5.00000000000000E-01   0.00000000000000E+00   0.00000000000000E+00
      0.00000000000000E+00   0.00000000000000E+00   0.00000000000000E+00  -3.32747958470251E-16
      5.28748081204222E-02
      0.00000000000000E+00   0.00000000000000E+00   0.00000000000000E+00   0.00000000000000E+00  -2.21590945650874E-16
     -8.32173790151789E-20  -2.21674163029889E-16   6.41820763264918E-16   5.28748081204222E-02   5.28748081204222E-02
      0.00000000000000E+00   0.00000000000000E+00   2.20373969499279E-16   3.08717568651653E-20   2.20404841256145E-16
      8.63329096466868E-16  -5.00000000000000E-01  -5.00000000000000E-01   0.00000000000000E+00   0.00000000000000E+00
      0.00000000000000E+00   0.00000000000000E+00   0.00000000000000E+00  -3.37415236523488E-16
      6.36094543532852E-02
      0.00000000000000E+00   0.00000000000000E+00   0.00000000000000E+00   0.00000000000000E+00  -2.63684239493006E-16
     -1.03838297617058E-19  -2.63788077790623E-16   6.40234470185952E-16   6.36094543532852E-02   6.36094543532852E-02
      0.00000000000000E+00   0.00000000000000E+00   2.61015163866003E-16   3.49094962814657E-20   2.61050073362284E-16
      8.67553575904658E-16  -5.00000000000000E-01  -5.00000000000000E-01   0.00000000000000E+00   0.00000000000000E+00
      0.00000000000000E+00   0.00000000000000E+00   0.00000000000000E+00  -3.42429017987051E-16
      7.62047725998443E-02
      0.00000000000000E+00   0.00000000000000E+00   0.00000000000000E+00   0.00000000000000E+00  -3.09189111633358E-16
     -1.28210338886315E-19  -3.09317321972244E-16   6.38615560776512E-16   7.62047725998443E-02   7.62047725998443E-02
      0.00000000000000E+00   0.00000000000000E+00   3.11963549513657E-16   3.86785217516736E-20   3.12002228035409E-16
      8.72760749342367E-16  -5.00000000000000E-01  -5.00000000000000E-01   0.00000000000000E+00   0.00000000000000E+00
      0.00000000000000E+00   0.00000000000000E+00   0.00000000000000E+00  -3.47721776785052E-16
      9.09832793424738E-02
      0.00000000000000E+00   0.00000000000000E+00   0.00000000000000E+00   0.00000000000000E+00  -3.61539510428670E-16
     -1.56201995441781E-19  -3.61695712424112E-16   6.37011129668437E-16   9.09832793424738E-02   9.09832793424738E-02
      0.00000000000000E+00   0.00000000000000E+00   3.60486926009097E-16   4.19374242348242E-20   3.60528863433332E-16
      8.79172860770194E-16  -5.00000000000000E-01  -5.00000000000000E-01   0.00000000000000E+00   0.00000000000000E+00
      0.00000000000000E+00   0.00000000000000E+00   0.00000000000000E+00  -3.53213168896539E-16
      1.08323393920492E-01
      0.00000000000000E+00   0.00000000000000E+00   0.00000000000000E+00   0.00000000000000E+00  -4.13060256022229E-16
     -1.87295334453144E-19  -4.13247551356682E-16   6.35467699592920E-16   1.08323393920492E-01   1.08323393920492E-01
      0.00000000000000E+00   0.00000000000000E+00   4.15262913565528E-16   4.44995586541336E-20   4.15307413124182E-16
      8.87039417956479E-16  -5.00000000000000E-01  -5.00000000000000E-01   0.00000000000000E+00   0.00000000000000E+00
      0.00000000000000E+00   0.00000000000000E+00   0.00000000000000E+00  -3.58829944953976E-16
      1.28669128358701E-01
      0.00000000000000E+00   0.00000000000000E+00   0.00000000000000E+00   0.00000000000000E+00  -4.69231816780688E-16
     -2.20672428638455E-19  -4.69452489209326E-16   6.34022235239913E-16   1.28669128358701E-01   1.28669128358701E-01
      0.00000000000000E+00   0.00000000000000E+00   4.68080967861511E-16   4.63009350331532E-20   4.68127268796544E-16
      8.96631661589527E-16  -5.00000000000000E-01  -5.00000000000000E-01   0.00000000000000E+00   0.00000000000000E+00
      0.00000000000000E+00   0.00000000000000E+00   0.00000000000000E+00  -3.64528627852708E-16
      1.52541456766199E-01
      0.00000000000000E+00   0.00000000000000E+00   0.00000000000000E+00   0.00000000000000E+00  -5.19911131771048E-16
     -2.55363999022480E-19  -5.20166495770071E-16   6.32698147158329E-16   1.52541456766199E-01   1.52541456766199E-01
      0.00000000000000E+00   0.00000000000000E+00   5.20572478344762E-16   4.74242884449627E-20   5.20619902633207E-16
      9.08242467687092E-16  -5.00000000000000E-01  -5.00000000000000E-01   0.00000000000000E+00   0.00000000000000E+00
      0.00000000000000E+00   0.00000000000000E+00   0.00000000000000E+00  -3.70306077004619E-16
      1.80551655430996E-01
      0.00000000000000E+00   0.00000000000000E+00   0.00000000000000E+00   0.00000000000000E+00  -5.67387982768797E-16
     -2.90285682406035E-19  -5.67678268451203E-16   6.31509517146171E-16   1.80551655430996E-01   1.80551655430996E-01
      0.00000000000000E+00   0.00000000000000E+00   5.70446595634463E-16   4.80554060922157E-20   5.70494651040556E-16
      9.22194571861662E-16  -5.00000000000000E-01  -5.00000000000000E-01   0.00000000000000E+00   0.00000000000000E+00
      0.00000000000000E+00   0.00000000000000E+00   0.00000000000000E+00  -3.76189981337903E-16
      2.13416955197692E-01
      0.00000000000000E+00   0.00000000000000E+00   0.00000000000000E+00   0.00000000000000E+00  -6.13697856264206E-16
     -3.24242554628414E-19  -6.14022098818834E-16   6.30465490225098E-16   2.13416955197692E-01   2.13416955197692E-01
      0.00000000000000E+00   0.00000000000000E+00   6.16274618208768E-16   4.84003502465705E-20   6.16323018559015E-16
      9.38847727735180E-16  -5.00000000000000E-01  -5.00000000000000E-01   0.00000000000000E+00   0.00000000000000E+00
      0.00000000000000E+00   0.00000000000000E+00   0.00000000000000E+00  -3.82228442207426E-16
      2.51978906923948E-01
      0.00000000000000E+00   0.00000000000000E+00   0.00000000000000E+00   0.00000000000000E+00  -6.56320061492590E-16
     -3.56234620396415E-19  -6.56676296112986E-16   6.29565193114391E-16   2.51978906923948E-01   2.51978906923948E-01
      0.00000000000000E+00   0.00000000000000E+00   6.55508740503692E-16   4.86188852498953E-20   6.55557359388942E-16
      9.58592912932961E-16  -5.00000000000000E-01  -5.00000000000000E-01   0.00000000000000E+00   0.00000000000000E+00
      0.00000000000000E+00   0.00000000000000E+00   0.00000000000000E+00  -3.88500960485891E-16
      2.97224930282756E-01
      0.00000000000000E+00   0.00000000000000E+00   0.00000000000000E+00   0.00000000000000E+00  -6.95329894384837E-16
     -3.85583555652783E-19  -6.95715477940490E-16   6.28799562981254E-16   2.97224930282756E-01   2.97224930282756E-01
      0.00000000000000E+00   0.00000000000000E+00   6.97759480903131E-16   4.88033855628698E-20   6.97808284288694E-16
      9.81845394188880E-16  -5.00000000000000E-01  -5.00000000000000E-01   0.00000000000000E+00   0.00000000000000E+00
      0.00000000000000E+00   0.00000000000000E+00   0.00000000000000E+00  -3.95108594459607E-16
      3.49710317378972E-01
      0.00000000000000E+00   0.00000000000000E+00   0.00000000000000E+00   0.00000000000000E+00  -7.25810890019443E-16
     -4.10708083287966E-19  -7.26221598102731E-16   6.28184014111127E-16   3.49710317378972E-01   3.49710317378972E-01
      0.00000000000000E+00   0.00000000000000E+00   7.29665258375143E-16   4.89920368577708E-20   7.29714250412001E-16
      1.00873321475551E-15  -5.00000000000000E-01  -5.00000000000000E-01   0.00000000000000E+00   0.00000000000000E+00
      0.00000000000000E+00   0.00000000000000E+00   0.00000000000000E+00  -4.02017264781655E-16
      4.10593366410584E-01
      0.00000000000000E+00   0.00000000000000E+00   0.00000000000000E+00   0.00000000000000E+00  -7.52017832221397E-16
     -4.30406829610706E-19  -7.52448239051008E-16   6.27724370802154E-16   4.10593366410584E-01   4.10593366410584E-01
      0.00000000000000E+00   0.00000000000000E+00   7.49340835893656E-16   4.91976349226855E-20   7.49390033528579E-16
      1.03952554104640E-15  -5.00000000000000E-01  -5.00000000000000E-01   0.00000000000000E+00   0.00000000000000E+00
      0.00000000000000E+00   0.00000000000000E+00   0.00000000000000E+00  -4.09204874235476E-16
      4.82029477274341E-01
      0.00000000000000E+00   0.00000000000000E+00   0.00000000000000E+00   0.00000000000000E+00  -7.66257085574862E-16
     -4.45550834209108E-19  -7.66702636409072E-16   6.27383566807337E-16   4.82029477274341E-01   4.82029477274341E-01
      0.00000000000000E+00   0.00000000000000E+00   7.71417063153322E-16   4.94251324825733E-20   7.71466488285804E-16
      1.07455339978717E-15  -5.00000000000000E-01  -5.00000000000000E-01   0.00000000000000E+00   0.00000000000000E+00
      0.00000000000000E+00   0.00000000000000E+00   0.00000000000000E+00  -4.16647493198650E-16
      5.64895365876299E-01
      0.00000000000000E+00   0.00000000000000E+00   0.00000000000000E+00   0.00000000000000E+00  -7.81010297201816E-16
     -4.56448238888003E-19  -7.81466745440704E-16   6.27144624892675E-16   5.64895365876299E-01   5.64895365876299E-01
      0.00000000000000E+00   0.00000000000000E+00   7.80248937395644E-16   4.96718830053490E-20   7.80298609278649E-16
      1.11276981333904E-15  -5.00000000000000E-01  -5.00000000000000E-01   0.00000000000000E+00   0.00000000000000E+00
      0.00000000000000E+00   0.00000000000000E+00   0.00000000000000E+00  -4.23728300528595E-16
      6.59914918139878E-01
      0.00000000000000E+00   0.00000000000000E+00   0.00000000000000E+00   0.00000000000000E+00  -7.92901618753361E-16
     -4.65495711096154E-19  -7.93367114464457E-16   6.26950053284338E-16   6.59914918139878E-01   6.59914918139878E-01
      0.00000000000000E+00   0.00000000000000E+00   7.93499499673284E-16   4.99333221542141E-20   7.93549432995438E-16
      1.15318372688163E-15  -5.00000000000000E-01  -5.00000000000000E-01   0.00000000000000E+00   0.00000000000000E+00
      0.00000000000000E+00   0.00000000000000E+00   0.00000000000000E+00  -4.29955898126870E-16
      7.68870671402116E-01
      0.00000000000000E+00   0.00000000000000E+00   0.00000000000000E+00   0.00000000000000E+00  -7.99915542935191E-16
     -4.73867710404820E-19  -8.00389410645596E-16   6.26772961484403E-16   7.68870671402116E-01   7.68870671402116E-01
      0.00000000000000E+00   0.00000000000000E+00   7.98980196402654E-16   5.02067790647969E-20   7.99030403181719E-16
      1.19743226654401E-15  -5.00000000000000E-01  -5.00000000000000E-01   0.00000000000000E+00   0.00000000000000E+00
      0.00000000000000E+00   0.00000000000000E+00   0.00000000000000E+00  -4.36052800996884E-16
      8.95259345186311E-01
      0.00000000000000E+00   0.00000000000000E+00   0.00000000000000E+00   0.00000000000000E+00  -8.12031849334291E-16
     -4.82895110622449E-19  -8.12514744444913E-16   6.26585091676568E-16   8.95259345186311E-01   8.95259345186311E-01
      0.00000000000000E+00   0.00000000000000E+00   8.08424586007231E-16   5.04919657497189E-20   8.08475077972980E-16
      1.24789151831570E-15  -5.00000000000000E-01  -5.00000000000000E-01   0.00000000000000E+00   0.00000000000000E+00
      0.00000000000000E+00   0.00000000000000E+00   0.00000000000000E+00  -4.42989824168926E-16
      1.00000000000000E+00
      0.00000000000000E+00   0.00000000000000E+00   0.00000000000000E+00   0.00000000000000E+00  -8.50946532108114E-16
     -5.20127468542659E-19  -8.51466659576657E-16   6.25843513950164E-16   1.00000000000000E+00   1.00000000000000E+00
      0.00000000000000E+00   0.00000000000000E+00   8.56636634488807E-16   5.07015498784186E-20   8.56687336038685E-16
      1.28866908534976E-15  -5.00000000000000E-01  -5.00000000000000E-01   0.00000000000000E+00   0.00000000000000E+00
      0.00000000000000E+00   0.00000000000000E+00   0.00000000000000E+00  -4.50210193395880E-16
      0.00000000000000E+00
      0.00000000000000E+00   0.00000000000000E+00   0.00000000000000E+00   0.00000000000000E+00  -8.53334445816054E-16
     -5.20128391053246E-19  -8.53854574207107E-16   6.25843496189778E-16   1.00000000000000E+00   1.00000000000000E+00
      0.00000000000000E+00   0.00000000000000E+00   8.55539022055497E-16   5.07015497969664E-20   8.55589723605294E-16
      1.28866907103469E-15  -5.00000000000000E-01  -5.00000000000000E-01   0.00000000000000E+00   0.00000000000000E+00
      0.00000000000000E+00   0.00000000000000E+00   0.00000000000000E+00  -4.50210234830430E-16
      1.00000000000000E-03
      0.00000000000000E+00   0.00000000000000E+00   0.00000000000000E+00   0.00000000000000E+00  -8.50946030520074E-16
     -5.19010640094145E-19  -8.51465041160168E-16   6.25839770583090E-16   1.00000000000000E+00   1.00000000000000E+00
      0.00000000000000E+00   0.00000000000000E+00   8.49442373512095E-16   5.07016443466320E-20   8.49493075156441E-16
      1.28858053797015E-15  -4.98000000000000E-01  -4.98000000000000E-01   0.00000000000000E+00   0.00000000000000E+00
      0.00000000000000E+00   0.00000000000000E+00   0.00000000000000E+00  -4.48062661512373E-16
      2.17333333333333E-03
      0.00000000000000E+00   0.00000000000000E+00   0.00000000000000E+00   0.00000000000000E+00  -8.50563467531838E-16
     -5.17739431490362E-19  -8.51081206963329E-16   6.25834560111766E-16   1.00000000000000E+00   1.00000000000000E+00
      0.00000000000000E+00   0.00000000000000E+00   8.49630707990218E-16   5.07017519367432E-20   8.49681409742154E-16
      1.28847575721312E-15  -4.95653333333333E-01  -4.95653333333333E-01   0.00000000000000E+00   0.00000000000000E+00
      0.00000000000000E+00   0.00000000000000E+00   0.00000000000000E+00  -4.45546780495477E-16
      3.56568888888889E-03
      0.00000000000000E+00   0.00000000000000E+00   0.00000000000000E+00   0.00000000000000E+00  -8.47693510615857E-16
     -5.16283134925068E-19  -8.48209793750782E-16   6.25827275547696E-16   1.00000000000000E+00   1.00000000000000E+00
      0.00000000000000E+00   0.00000000000000E+00   8.48420456487981E-16   5.07018752645989E-20   8.48471158363245E-16
      1.28835021908750E-15  -4.92868622222222E-01  -4.92868622222222E-01   0.00000000000000E+00   0.00000000000000E+00
      0.00000000000000E+00   0.00000000000000E+00   0.00000000000000E+00  -4.42566587837324E-16
      5.21795081481481E-03
      0.00000000000000E+00   0.00000000000000E+00   0.00000000000000E+00   0.00000000000000E+00  -8.48595829363001E-16
     -5.14626770422090E-19  -8.49110456133423E-16   6.25817101753362E-16   1.00000000000000E+00   1.00000000000000E+00
      0.00000000000000E+00   0.00000000000000E+00   8.47807101482796E-16   5.07020156021668E-20   8.47857803498399E-16
      1.28819958698097E-15  -4.89564098370370E-01  -4.89564098370370E-01   0.00000000000000E+00   0.00000000000000E+00
      0.00000000000000E+00   0.00000000000000E+00   0.00000000000000E+00  -4.39037488819909E-16
      7.17863496691358E-03
      0.00000000000000E+00   0.00000000000000E+00   0.00000000000000E+00   0.00000000000000E+00  -8.44010148788799E-16
     -5.12758354225617E-19  -8.44522907143025E-16   6.25802932397073E-16   1.00000000000000E+00   1.00000000000000E+00
      0.00000000000000E+00   0.00000000000000E+00   8.46692954566809E-16   5.07021739488618E-20   8.46743656740758E-16
      1.28801856236363E-15  -4.85642730066173E-01  -4.85642730066173E-01   0.00000000000000E+00   0.00000000000000E+00
      0.00000000000000E+00   0.00000000000000E+00   0.00000000000000E+00  -4.34859828647081E-16
      9.50531349407078E-03
      0.00000000000000E+00   0.00000000000000E+00   0.00000000000000E+00   0.00000000000000E+00  -8.44080985526149E-16
     -5.10671097403100E-19  -8.44591656623553E-16   6.25783269554291E-16   1.00000000000000E+00   1.00000000000000E+00
      0.00000000000000E+00   0.00000000000000E+00   8.41785412064056E-16   5.07023508263969E-20   8.41836114414882E-16
      1.28780065729748E-15  -4.80989373011858E-01  -4.80989373011858E-01   0.00000000000000E+00   0.00000000000000E+00
      0.00000000000000E+00   0.00000000000000E+00   0.00000000000000E+00  -4.29916328790284E-16
      1.22663053462973E-02
      0.00000000000000E+00   0.00000000000000E+00   0.00000000000000E+00   0.00000000000000E+00  -8.42540087540330E-16
     -5.08366289208138E-19  -8.43048453829538E-16   6.25756091898592E-16   1.00000000000000E+00   1.00000000000000E+00
      0.00000000000000E+00   0.00000000000000E+00   8.42463301851603E-16   5.07025460040872E-20   8.42514004397607E-16
      1.28753791419631E-15  -4.75467389307405E-01  -4.75467389307405E-01   0.00000000000000E+00   0.00000000000000E+00
      0.00000000000000E+00   0.00000000000000E+00   0.00000000000000E+00  -4.24069111675631E-16
      1.55426823442728E-02
      0.00000000000000E+00   0.00000000000000E+00   0.00000000000000E+00   0.00000000000000E+00  -8.39991110115840E-16
     -5.05856286461169E-19  -8.40496966402301E-16   6.25718695921096E-16   1.00000000000000E+00   1.00000000000000E+00
      0.00000000000000E+00   0.00000000000000E+00   8.41044054309149E-16   5.07027582028248E-20   8.41094757067352E-16
      1.28722057443673E-15  -4.68914635311454E-01  -4.68914635311454E-01   0.00000000000000E+00   0.00000000000000E+00
      0.00000000000000E+00   0.00000000000000E+00   0.00000000000000E+00  -4.17156213959983E-16
      1.94306497152037E-02
      0.00000000000000E+00   0.00000000000000E+00   0.00000000000000E+00   0.00000000000000E+00  -8.36149056993630E-16
     -5.03167503186891E-19  -8.36652224496817E-16   6.25667502667202E-16   1.00000000000000E+00   1.00000000000000E+00
      0.00000000000000E+00   0.00000000000000E+00   8.37228701767948E-16   5.07029847844632E-20   8.37279404752733E-16
      1.28683669080901E-15  -4.61138700569592E-01  -4.61138700569592E-01   0.00000000000000E+00   0.00000000000000E+00
      0.00000000000000E+00   0.00000000000000E+00   0.00000000000000E+00  -4.08987491561871E-16
      2.40443709953751E-02
      0.00000000000000E+00   0.00000000000000E+00   0.00000000000000E+00   0.00000000000000E+00  -8.33126053714529E-16
     -5.00342899934016E-19  -8.33626396614463E-16   6.25597825944129E-16   1.00000000000000E+00   1.00000000000000E+00
      0.00000000000000E+00   0.00000000000000E+00   8.35507215440719E-16   5.07032214705722E-20   8.35557918662190E-16
      1.28637168742850E-15  -4.51911258009250E-01  -4.51911258009250E-01   0.00000000000000E+00   0.00000000000000E+00
      0.00000000000000E+00   0.00000000000000E+00   0.00000000000000E+00  -3.99339776351908E-16
      2.95193202478451E-02
      0.00000000000000E+00   0.00000000000000E+00   0.00000000000000E+00   0.00000000000000E+00  -8.31850843552853E-16
     -4.97442574761845E-19  -8.32348286127615E-16   6.25503609051320E-16   1.00000000000000E+00   1.00000000000000E+00
      0.00000000000000E+00   0.00000000000000E+00   8.28597146117439E-16   5.07034622206401E-20   8.28647849579660E-16
      1.28580788943495E-15  -4.40961359504310E-01  -4.40961359504310E-01   0.00000000000000E+00   0.00000000000000E+00
      0.00000000000000E+00   0.00000000000000E+00   0.00000000000000E+00  -3.87951073639710E-16
      3.60162600274429E-02
      0.00000000000000E+00   0.00000000000000E+00   0.00000000000000E+00   0.00000000000000E+00  -8.26096055988094E-16
     -4.94541776412997E-19  -8.26590597764507E-16   6.25377111595224E-16   1.00000000000000E+00   1.00000000000000E+00
      0.00000000000000E+00   0.00000000000000E+00   8.24081317832012E-16   5.07036993417597E-20   8.24132021531354E-16
      1.28512403862739E-15  -4.27967479945114E-01  -4.27967479945114E-01   0.00000000000000E+00   0.00000000000000E+00
      0.00000000000000E+00   0.00000000000000E+00   0.00000000000000E+00  -3.74513602569172E-16
      4.37259618992322E-02
      0.00000000000000E+00   0.00000000000000E+00   0.00000000000000E+00   0.00000000000000E+00  -8.25728170913781E-16
     -4.91724932643782E-19  -8.26219895846424E-16   6.25208521601667E-16   1.00000000000000E+00   1.00000000000000E+00
      0.00000000000000E+00   0.00000000000000E+00   8.23656254248037E-16   5.07039239748956E-20   8.23706958172012E-16
      1.28429482325853E-15  -4.12548076201536E-01  -4.12548076201536E-01   0.00000000000000E+00   0.00000000000000E+00
      0.00000000000000E+00   0.00000000000000E+00   0.00000000000000E+00  -3.58665481406331E-16
      5.27720120954650E-02
      0.00000000000000E+00   0.00000000000000E+00   0.00000000000000E+00   0.00000000000000E+00  -8.23980912673884E-16
     -4.89094606510722E-19  -8.24470007280395E-16   6.24988184991025E-16   1.00000000000000E+00   1.00000000000000E+00