DF-ISE text

Info {
  version   = 1.0
  type      = xyplot
  datasets  = [
    "time"
    "S OuterVoltage" "S InnerVoltage" "S QuasiFermiPotential" "S DisplacementCurrent" "S eCurrent"
    "S hCurrent" "S TotalCurrent" "S Charge" "D OuterVoltage" "D InnerVoltage"
    "D QuasiFermiPotential" "D DisplacementCurrent" "D eCurrent" "D hCurrent" "D TotalCurrent"
    "D Charge" "G OuterVoltage" "G InnerVoltage" "G QuasiFermiPotential" "G DisplacementCurrent"
    "G eCurrent" "G hCurrent" "G TotalCurrent" "G Charge" ]
  functions = [
    Time
    OuterVoltage InnerVoltage QuasiFermiPotential DisplacementCurrent eCurrent
    hCurrent TotalCurrent Charge OuterVoltage InnerVoltage
    QuasiFermiPotential DisplacementCurrent eCurrent hCurrent TotalCurrent
    Charge OuterVoltage InnerVoltage QuasiFermiPotential DisplacementCurrent
    eCurrent hCurrent TotalCurrent Charge ]
}

Data {
      0.00000000000000E+00
      0.00000000000000E+00   0.00000000000000E+00   0.00000000000000E+00   0.00000000000000E+00  -1.95115965302120E-18
     -5.53365335433876E-35  -1.95115965302120E-18   3.85948337180866E-16   0.00000000000000E+00   0.00000000000000E+00
      0.00000000000000E+00   0.00000000000000E+00   3.62821853152939E-24  -3.73263202137277E-35   3.62821853149206E-24
      5.43646223081325E-16  -5.00000000000000E-01  -5.00000000000000E-01   0.00000000000000E+00   0.00000000000000E+00
      0.00000000000000E+00   0.00000000000000E+00   0.00000000000000E+00  -4.06022937480021E-16
      0.00000000000000E+00
      0.00000000000000E+00   0.00000000000000E+00   0.00000000000000E+00   0.00000000000000E+00   1.36581313524230E-17
     -1.29107056106429E-31   1.36581313524229E-17   3.85948337169480E-16   0.00000000000000E+00   0.00000000000000E+00
      0.00000000000000E+00   0.00000000000000E+00   1.94790775252874E-18  -1.29957749533887E-31   1.94790775252861E-18
      5.43646223069196E-16  -5.00000000000000E-01  -5.00000000000000E-01   0.00000000000000E+00   0.00000000000000E+00
      0.00000000000000E+00   0.00000000000000E+00   0.00000000000000E+00  -4.06022937482592E-16
      1.00000000000000E-03
      0.00000000000000E+00   0.00000000000000E+00   0.00000000000000E+00   0.00000000000000E+00  -8.81693947425791E-18
     -2.24012162329203E-22  -8.81716348642024E-18   3.85918390607668E-16   1.00000000000000E-03   1.00000000000000E-03
      0.00000000000000E+00   0.00000000000000E+00  -1.44646611032891E-17   9.80367687092438E-22  -1.44636807356020E-17
      5.43931270046512E-16  -5.00000000000000E-01  -5.00000000000000E-01   0.00000000000000E+00   0.00000000000000E+00
      0.00000000000000E+00   0.00000000000000E+00   0.00000000000000E+00  -4.06336264371510E-16
      2.17333333333333E-03
      0.00000000000000E+00   0.00000000000000E+00   0.00000000000000E+00   0.00000000000000E+00   8.97287192227952E-19
     -4.83547707795944E-22   8.96803644520156E-19   3.85883812970943E-16   2.17333333333333E-03   2.17333333333333E-03
      0.00000000000000E+00   0.00000000000000E+00   1.58842646791775E-17   2.09697188130307E-21   1.58863616510588E-17
      5.44266199540810E-16  -5.00000000000000E-01  -5.00000000000000E-01   0.00000000000000E+00   0.00000000000000E+00
      0.00000000000000E+00   0.00000000000000E+00   0.00000000000000E+00  -4.06700667549683E-16
      3.56568888888889E-03
      0.00000000000000E+00   0.00000000000000E+00   0.00000000000000E+00   0.00000000000000E+00   1.82412512849640E-18
     -7.86905549240231E-22   1.82333822294716E-18   3.85843547226268E-16   3.56568888888889E-03   3.56568888888889E-03
      0.00000000000000E+00   0.00000000000000E+00  -5.34487904027857E-18   3.37588320826634E-21  -5.34150315707030E-18
      5.44664295063831E-16  -5.00000000000000E-01  -5.00000000000000E-01   0.00000000000000E+00   0.00000000000000E+00
      0.00000000000000E+00   0.00000000000000E+00   0.00000000000000E+00  -4.07128662840341E-16
      5.21795081481481E-03
      0.00000000000000E+00   0.00000000000000E+00   0.00000000000000E+00   0.00000000000000E+00   4.69475355472905E-18
     -1.14039746456429E-21   4.69361315726449E-18   3.85796815306496E-16   5.21795081481481E-03   5.21795081481481E-03
      0.00000000000000E+00   0.00000000000000E+00  -1.09641940546444E-17   4.83036970714629E-21  -1.09593636849372E-17
      5.45137580521375E-16  -5.00000000000000E-01  -5.00000000000000E-01   0.00000000000000E+00   0.00000000000000E+00
      0.00000000000000E+00   0.00000000000000E+00   0.00000000000000E+00  -4.07630477884902E-16
      7.17863496691358E-03
      0.00000000000000E+00   0.00000000000000E+00   0.00000000000000E+00   0.00000000000000E+00  -1.09839389551786E-17
     -1.55077891509061E-21  -1.09854897340937E-17   3.85742790928647E-16   7.17863496691358E-03   7.17863496691358E-03
      0.00000000000000E+00   0.00000000000000E+00  -1.07107993596322E-17   6.47043477042480E-21  -1.07043289248618E-17
      5.45700399762326E-16  -5.00000000000000E-01  -5.00000000000000E-01   0.00000000000000E+00   0.00000000000000E+00
      0.00000000000000E+00   0.00000000000000E+00   0.00000000000000E+00  -4.08217685260359E-16
      9.50531349407078E-03
      0.00000000000000E+00   0.00000000000000E+00   0.00000000000000E+00   0.00000000000000E+00  -1.30121084351207E-17
     -2.02506878029933E-21  -1.30141335039010E-17   3.85680617886292E-16   9.50531349407078E-03   9.50531349407078E-03
      0.00000000000000E+00   0.00000000000000E+00   4.16506922281056E-18   8.30065459823195E-21   4.17336987740879E-18
      5.46369867854460E-16  -5.00000000000000E-01  -5.00000000000000E-01   0.00000000000000E+00   0.00000000000000E+00
      0.00000000000000E+00   0.00000000000000E+00   0.00000000000000E+00  -4.08903292716966E-16
      1.22663053462973E-02
      0.00000000000000E+00   0.00000000000000E+00   0.00000000000000E+00   0.00000000000000E+00  -9.19696214146990E-18
     -2.57025790504417E-21  -9.19953239937494E-18   3.85609436026869E-16   1.22663053462973E-02   1.22663053462973E-02
      0.00000000000000E+00   0.00000000000000E+00   1.12867804009995E-17   1.03174732254501E-20   1.12970978742250E-17
      5.47166407169023E-16  -5.00000000000000E-01  -5.00000000000000E-01   0.00000000000000E+00   0.00000000000000E+00
      0.00000000000000E+00   0.00000000000000E+00   0.00000000000000E+00  -4.09701823201734E-16
      1.55426823442728E-02
      0.00000000000000E+00   0.00000000000000E+00   0.00000000000000E+00   0.00000000000000E+00  -1.90550799733032E-17
     -3.19287632741046E-21  -1.90582728496306E-17   3.85528414744852E-16   1.55426823442728E-02   1.55426823442728E-02
      0.00000000000000E+00   0.00000000000000E+00   1.94119244906381E-17   1.25060673871822E-20   1.94244305580252E-17
      5.48114381137431E-16  -5.00000000000000E-01  -5.00000000000000E-01   0.00000000000000E+00   0.00000000000000E+00
      0.00000000000000E+00   0.00000000000000E+00   0.00000000000000E+00  -4.10629390354997E-16
      1.94306497152037E-02
      0.00000000000000E+00   0.00000000000000E+00   0.00000000000000E+00   0.00000000000000E+00   4.26216118919398E-18
     -3.89844524663625E-21   4.25826274394734E-18   3.85436786936072E-16   1.94306497152037E-02   1.94306497152037E-02
      0.00000000000000E+00   0.00000000000000E+00   1.49372171085349E-17   1.48370765646229E-20   1.49520541850996E-17
      5.49242833969458E-16  -5.00000000000000E-01  -5.00000000000000E-01   0.00000000000000E+00   0.00000000000000E+00
      0.00000000000000E+00   0.00000000000000E+00   0.00000000000000E+00  -4.11703814239677E-16
      2.40443709953751E-02
      0.00000000000000E+00   0.00000000000000E+00   0.00000000000000E+00   0.00000000000000E+00  -1.71782934042940E-18
     -4.69079433326742E-21  -1.72252013476267E-18   3.85333880102873E-16   2.40443709953751E-02   2.40443709953751E-02
      0.00000000000000E+00   0.00000000000000E+00   1.24401919401297E-17   1.72638547155628E-20   1.24574557948453E-17
      5.50586350603680E-16  -5.00000000000000E-01  -5.00000000000000E-01   0.00000000000000E+00   0.00000000000000E+00
      0.00000000000000E+00   0.00000000000000E+00   0.00000000000000E+00  -4.12944800424860E-16
      2.95193202478451E-02
      0.00000000000000E+00   0.00000000000000E+00   0.00000000000000E+00   0.00000000000000E+00  -1.84529251208909E-17
     -5.57136844974993E-21  -1.84584964893406E-17   3.85219126849233E-16   2.95193202478451E-02   2.95193202478451E-02
      0.00000000000000E+00   0.00000000000000E+00   2.54840468926235E-17   1.97212271799468E-20   2.55037681198034E-17
      5.52186040330616E-16  -5.00000000000000E-01  -5.00000000000000E-01   0.00000000000000E+00   0.00000000000000E+00
      0.00000000000000E+00   0.00000000000000E+00   0.00000000000000E+00  -4.14374286369748E-16
      3.60162600274429E-02
      0.00000000000000E+00   0.00000000000000E+00   0.00000000000000E+00   0.00000000000000E+00  -2.44637363694728E-17
     -6.53871545144352E-21  -2.44702750849242E-17   3.85092032660860E-16   3.60162600274429E-02   3.60162600274429E-02
      0.00000000000000E+00   0.00000000000000E+00  -1.18957330343740E-18   2.21270999902718E-20  -1.16744620344713E-18
      5.54090647348538E-16  -5.00000000000000E-01  -5.00000000000000E-01   0.00000000000000E+00   0.00000000000000E+00
      0.00000000000000E+00   0.00000000000000E+00   0.00000000000000E+00  -4.16017081616776E-16
      4.37259618992322E-02
      0.00000000000000E+00   0.00000000000000E+00   0.00000000000000E+00   0.00000000000000E+00  -2.56024577456105E-17
     -7.58841640964734E-21  -2.56100461620201E-17   3.84952076422819E-16   4.37259618992322E-02   4.37259618992322E-02
      0.00000000000000E+00   0.00000000000000E+00   7.02716874855637E-18   2.43883213760588E-20   7.05155706993243E-18
      5.56357794433779E-16  -5.00000000000000E-01  -5.00000000000000E-01   0.00000000000000E+00   0.00000000000000E+00
      0.00000000000000E+00   0.00000000000000E+00   0.00000000000000E+00  -4.17901938836540E-16
      5.28748081204222E-02
      0.00000000000000E+00   0.00000000000000E+00   0.00000000000000E+00   0.00000000000000E+00  -2.18644988189543E-17
     -8.71389947238748E-21  -2.18732127184267E-17   3.84798508882209E-16   5.28748081204222E-02   5.28748081204222E-02
      0.00000000000000E+00   0.00000000000000E+00   1.03889920861854E-17   2.64115404485519E-20   1.04154036266339E-17
      5.59055363370019E-16  -5.00000000000000E-01  -5.00000000000000E-01   0.00000000000000E+00   0.00000000000000E+00
      0.00000000000000E+00   0.00000000000000E+00   0.00000000000000E+00  -4.20063246086473E-16
      6.36094543532852E-02
      0.00000000000000E+00   0.00000000000000E+00   0.00000000000000E+00   0.00000000000000E+00  -1.91104148547253E-17
     -9.89568577579389E-21  -1.91203105405011E-17   3.84631863556971E-16   6.36094543532852E-02   6.36094543532852E-02
      0.00000000000000E+00   0.00000000000000E+00   1.37183887291313E-17   2.81024261276630E-20   1.37464911552590E-17
      5.62226980602789E-16  -5.00000000000000E-01  -5.00000000000000E-01   0.00000000000000E+00   0.00000000000000E+00
      0.00000000000000E+00   0.00000000000000E+00   0.00000000000000E+00  -4.22515945327511E-16
      7.62047725998443E-02
      0.00000000000000E+00   0.00000000000000E+00   0.00000000000000E+00   0.00000000000000E+00  -2.67553014890624E-18
     -1.11303218192176E-20  -2.68666047072546E-18   3.84450109718517E-16   7.62047725998443E-02   7.62047725998443E-02
      0.00000000000000E+00   0.00000000000000E+00   2.85567681619406E-17   2.94267252657517E-20   2.85861948872064E-17
      5.65952844111891E-16  -5.00000000000000E-01  -5.00000000000000E-01   0.00000000000000E+00   0.00000000000000E+00
      0.00000000000000E+00   0.00000000000000E+00   0.00000000000000E+00  -4.25306301654207E-16
      9.09832793424738E-02
      0.00000000000000E+00   0.00000000000000E+00   0.00000000000000E+00   0.00000000000000E+00  -3.12169679982946E-17
     -1.24221753883959E-20  -3.12293901736829E-17   3.84249837666207E-16   9.09832793424738E-02   9.09832793424738E-02
      0.00000000000000E+00   0.00000000000000E+00   1.54686357806376E-17   3.03886798871966E-20   1.54990244605248E-17
      5.70325505926445E-16  -5.00000000000000E-01  -5.00000000000000E-01   0.00000000000000E+00   0.00000000000000E+00
      0.00000000000000E+00   0.00000000000000E+00   0.00000000000000E+00  -4.28493139471498E-16
      1.08323393920492E-01
      0.00000000000000E+00   0.00000000000000E+00   0.00000000000000E+00   0.00000000000000E+00  -2.45728572154503E-17
     -1.37905487680485E-20  -2.45866477642183E-17   3.84025580962597E-16   1.08323393920492E-01   1.08323393920492E-01
      0.00000000000000E+00   0.00000000000000E+00   1.58523988143181E-17   3.10300596049207E-20   1.58834288739230E-17
      5.75451536433483E-16  -5.00000000000000E-01  -5.00000000000000E-01   0.00000000000000E+00   0.00000000000000E+00
      0.00000000000000E+00   0.00000000000000E+00   0.00000000000000E+00  -4.32151992927999E-16
      1.28669128358701E-01
      0.00000000000000E+00   0.00000000000000E+00   0.00000000000000E+00   0.00000000000000E+00  -2.57680877229382E-17
     -1.52844023972005E-20  -2.57833721253354E-17   3.83768614485205E-16   1.28669128358701E-01   1.28669128358701E-01
      0.00000000000000E+00   0.00000000000000E+00   1.53351130301602E-17   3.14200614024908E-20   1.53665330915627E-17
      5.81453149380505E-16  -5.00000000000000E-01  -5.00000000000000E-01   0.00000000000000E+00   0.00000000000000E+00
      0.00000000000000E+00   0.00000000000000E+00   0.00000000000000E+00  -4.36382138225359E-16
      1.52541456766199E-01
      0.00000000000000E+00   0.00000000000000E+00   0.00000000000000E+00   0.00000000000000E+00  -2.89530973927366E-17
     -1.70137483657980E-20  -2.89701111411024E-17   3.83464749223268E-16   1.52541456766199E-01   1.52541456766199E-01
      0.00000000000000E+00   0.00000000000000E+00   3.78155847242017E-17   3.16385010419745E-20   3.78472232252437E-17
      5.88469494179786E-16  -5.00000000000000E-01  -5.00000000000000E-01   0.00000000000000E+00   0.00000000000000E+00
      0.00000000000000E+00   0.00000000000000E+00   0.00000000000000E+00  -4.41319276238671E-16
      1.80551655430996E-01
      0.00000000000000E+00   0.00000000000000E+00   0.00000000000000E+00   0.00000000000000E+00  -4.10173604670220E-17
     -1.92038744688751E-20  -4.10365643414909E-17   3.83091178052224E-16   1.80551655430996E-01   1.80551655430996E-01
      0.00000000000000E+00   0.00000000000000E+00   3.97168825651060E-17   3.17576940421861E-20   3.97486402591482E-17
      5.96657858181231E-16  -5.00000000000000E-01  -5.00000000000000E-01   0.00000000000000E+00   0.00000000000000E+00
      0.00000000000000E+00   0.00000000000000E+00   0.00000000000000E+00  -4.47153706174161E-16
      2.13416955197692E-01
      0.00000000000000E+00   0.00000000000000E+00   0.00000000000000E+00   0.00000000000000E+00  -3.75251202149986E-17
     -2.22273976336026E-20  -3.75473476126322E-17   3.82616140369048E-16   2.13416955197692E-01   2.13416955197692E-01
      0.00000000000000E+00   0.00000000000000E+00   2.92790506304099E-17   3.18303904045312E-20   2.93108810208145E-17
      6.06198201879110E-16  -5.00000000000000E-01  -5.00000000000000E-01   0.00000000000000E+00   0.00000000000000E+00
      0.00000000000000E+00   0.00000000000000E+00   0.00000000000000E+00  -4.54132212331572E-16
      2.51540702927059E-01
      0.00000000000000E+00   0.00000000000000E+00   0.00000000000000E+00   0.00000000000000E+00  -5.37800902416858E-17
     -2.63126224159952E-20  -5.38064028641018E-17   3.82022641402406E-16   2.51540702927059E-01   2.51540702927059E-01
      0.00000000000000E+00   0.00000000000000E+00   4.05597804436926E-17   3.18874515804772E-20   4.05916678952731E-17
      6.17186834124373E-16  -5.00000000000000E-01  -5.00000000000000E-01   0.00000000000000E+00   0.00000000000000E+00
      0.00000000000000E+00   0.00000000000000E+00   0.00000000000000E+00  -4.62363554321775E-16
      2.96272566929516E-01
      0.00000000000000E+00   0.00000000000000E+00   0.00000000000000E+00   0.00000000000000E+00  -4.16882112449889E-17
     -3.12542893378843E-20  -4.17194655343268E-17   3.81307386724621E-16   2.96272566929516E-01   2.96272566929516E-01
      0.00000000000000E+00   0.00000000000000E+00   5.37494863086919E-17   3.19452978345829E-20   5.37814316065265E-17
      6.30014119501939E-16  -5.00000000000000E-01  -5.00000000000000E-01   0.00000000000000E+00   0.00000000000000E+00
      0.00000000000000E+00   0.00000000000000E+00   0.00000000000000E+00  -4.71970967572563E-16
      3.48161529172367E-01
      0.00000000000000E+00   0.00000000000000E+00   0.00000000000000E+00   0.00000000000000E+00  -5.71424680578220E-17
     -3.66738399193888E-20  -5.71791418977414E-17   3.80471159447548E-16   3.48161529172367E-01   3.48161529172367E-01
      0.00000000000000E+00   0.00000000000000E+00   7.80951928266504E-17   3.20103111183696E-20   7.81272031377688E-17
      6.44829427142574E-16  -5.00000000000000E-01  -5.00000000000000E-01   0.00000000000000E+00   0.00000000000000E+00
      0.00000000000000E+00   0.00000000000000E+00   0.00000000000000E+00  -4.82916220923490E-16
      4.09044578203978E-01
      0.00000000000000E+00   0.00000000000000E+00   0.00000000000000E+00   0.00000000000000E+00  -8.84990213182245E-17
     -4.30090773112333E-20  -8.85420303955357E-17   3.79448758372585E-16   4.09044578203978E-01   4.09044578203978E-01
      0.00000000000000E+00   0.00000000000000E+00   9.13261032523074E-17   3.20896406017921E-20   9.13581928929092E-17
      6.62111763244699E-16  -5.00000000000000E-01  -5.00000000000000E-01   0.00000000000000E+00   0.00000000000000E+00
      0.00000000000000E+00   0.00000000000000E+00   0.00000000000000E+00  -4.95652769662440E-16
      4.79668915080647E-01
      0.00000000000000E+00   0.00000000000000E+00   0.00000000000000E+00   0.00000000000000E+00  -1.09394847336185E-16
     -5.16658219050280E-20  -1.09446513158090E-16   3.78148037156535E-16   4.79668915080647E-01   4.79668915080647E-01
      0.00000000000000E+00   0.00000000000000E+00   1.21310423269321E-16   3.21856603751273E-20   1.21342608929696E-16
      6.81996088660757E-16  -5.00000000000000E-01  -5.00000000000000E-01   0.00000000000000E+00   0.00000000000000E+00
      0.00000000000000E+00   0.00000000000000E+00   0.00000000000000E+00  -5.10629445094348E-16
      5.61593145857584E-01
      0.00000000000000E+00   0.00000000000000E+00   0.00000000000000E+00   0.00000000000000E+00  -1.40699471190854E-16
     -6.37086507814132E-20  -1.40763179841635E-16   3.76492850552316E-16   5.61593145857584E-01   5.61593145857584E-01
      0.00000000000000E+00   0.00000000000000E+00   1.55130413583733E-16   3.22906981700461E-20   1.55162704281903E-16
      7.04871580197398E-16  -5.00000000000000E-01  -5.00000000000000E-01   0.00000000000000E+00   0.00000000000000E+00
      0.00000000000000E+00   0.00000000000000E+00   0.00000000000000E+00  -5.28243170704829E-16
      6.56625253558830E-01
      0.00000000000000E+00   0.00000000000000E+00   0.00000000000000E+00   0.00000000000000E+00  -2.00167094134058E-16
     -7.61566750561764E-20  -2.00243250809115E-16   3.74510716460698E-16   6.56625253558830E-01   6.56625253558830E-01
      0.00000000000000E+00   0.00000000000000E+00   2.09895106410808E-16   3.24077319585237E-20   2.09927514142766E-16
      7.31276307005990E-16  -5.00000000000000E-01  -5.00000000000000E-01   0.00000000000000E+00   0.00000000000000E+00
      0.00000000000000E+00   0.00000000000000E+00   0.00000000000000E+00  -5.48183286734246E-16
      7.66862498492275E-01
      0.00000000000000E+00   0.00000000000000E+00   0.00000000000000E+00   0.00000000000000E+00  -3.42024144308755E-16
     -8.54928258747986E-20  -3.42109637134630E-16   3.72187480697479E-16   7.66862498492275E-01   7.66862498492275E-01
      0.00000000000000E+00   0.00000000000000E+00   3.62541280072157E-16   3.25390027608648E-20   3.62573819074917E-16
      7.61787019702295E-16  -5.00000000000000E-01  -5.00000000000000E-01   0.00000000000000E+00   0.00000000000000E+00
      0.00000000000000E+00   0.00000000000000E+00   0.00000000000000E+00  -5.70448291182837E-16
      8.94737702615071E-01
      0.00000000000000E+00   0.00000000000000E+00   0.00000000000000E+00   0.00000000000000E+00  -7.41302458581723E-16
     -9.29010120815018E-20  -7.41395359593805E-16   3.69414446959712E-16   8.94737702615071E-01   8.94737702615071E-01
      0.00000000000000E+00   0.00000000000000E+00   7.23884476419659E-16   3.26859895302900E-20   7.23917162409189E-16
      7.96981826431269E-16  -5.00000000000000E-01  -5.00000000000000E-01   0.00000000000000E+00   0.00000000000000E+00
      0.00000000000000E+00   0.00000000000000E+00   0.00000000000000E+00  -5.95977439732235E-16
      1.00000000000000E+00
      0.00000000000000E+00   0.00000000000000E+00   0.00000000000000E+00   0.00000000000000E+00  -1.52554424833991E-15
     -9.95676044813759E-20  -1.52564381594439E-15   3.67053945976045E-16   1.00000000000000E+00   1.00000000000000E+00
      0.00000000000000E+00   0.00000000000000E+00   1.54402823402321E-15   3.28031781241531E-20   1.54406103720134E-15
      8.25777760291217E-16  -5.00000000000000E-01  -5.00000000000000E-01   0.00000000000000E+00   0.00000000000000E+00
      0.00000000000000E+00   0.00000000000000E+00   0.00000000000000E+00  -6.17281191232003E-16
      0.00000000000000E+00
      0.00000000000000E+00   0.00000000000000E+00   0.00000000000000E+00   0.00000000000000E+00  -1.54265707331342E-15
     -9.95676045392975E-20  -1.54275664091796E-15   3.67053945975043E-16   1.00000000000000E+00   1.00000000000000E+00
      0.00000000000000E+00   0.00000000000000E+00   1.53459970496346E-15   3.28031781241478E-20   1.53463250814158E-15
      8.25777760290560E-16  -5.00000000000000E-01  -5.00000000000000E-01   0.00000000000000E+00   0.00000000000000E+00
      0.00000000000000E+00   0.00000000000000E+00   0.00000000000000E+00  -6.17281191239494E-16
      1.00000000000000E-03
      0.00000000000000E+00   0.00000000000000E+00   0.00000000000000E+00   0.00000000000000E+00  -1.56799385187134E-15
     -9.97511333686243E-20  -1.56809360300471E-15   3.66907542790270E-16   1.00000000000000E+00   1.00000000000000E+00
      0.00000000000000E+00   0.00000000000000E+00   1.55209996370020E-15   3.28025795422206E-20   1.55213276627974E-15
      8.25385624867996E-16  -4.98000000000000E-01  -4.98000000000000E-01   0.00000000000000E+00   0.00000000000000E+00
      0.00000000000000E+00   0.00000000000000E+00   0.00000000000000E+00  -6.15468837871363E-16
      2.17333333333333E-03
      0.00000000000000E+00   0.00000000000000E+00   0.00000000000000E+00   0.00000000000000E+00  -1.57423741815480E-15
     -9.99738973599383E-20  -1.57433739205216E-15   3.66735248561434E-16   1.00000000000000E+00   1.00000000000000E+00
      0.00000000000000E+00   0.00000000000000E+00   1.59453036711351E-15   3.28018735292803E-20   1.59456316898704E-15
      8.24924844686987E-16  -4.95653333333333E-01  -4.95653333333333E-01   0.00000000000000E+00   0.00000000000000E+00
      0.00000000000000E+00   0.00000000000000E+00   0.00000000000000E+00  -6.13346870595856E-16
      3.56568888888889E-03
      0.00000000000000E+00   0.00000000000000E+00   0.00000000000000E+00   0.00000000000000E+00  -1.57448242667607E-15
     -1.00248795665211E-19  -1.57458267547174E-15   3.66530065030210E-16   1.00000000000000E+00   1.00000000000000E+00
      0.00000000000000E+00   0.00000000000000E+00   1.56932652036373E-15   3.28010305706728E-20   1.56935932139430E-15
      8.24377111358288E-16  -4.92868622222222E-01  -4.92868622222222E-01   0.00000000000000E+00   0.00000000000000E+00
      0.00000000000000E+00   0.00000000000000E+00   0.00000000000000E+00  -6.10835166512867E-16
      5.21795081481481E-03
      0.00000000000000E+00   0.00000000000000E+00   0.00000000000000E+00   0.00000000000000E+00  -1.62109783524149E-15
     -1.00590112307321E-19  -1.62119842535380E-15   3.66285544332881E-16   1.00000000000000E+00   1.00000000000000E+00
      0.00000000000000E+00   0.00000000000000E+00   1.62910918474944E-15   3.28000229913786E-20   1.62914198477243E-15
      8.23725817258893E-16  -4.89564098370370E-01  -4.89564098370370E-01   0.00000000000000E+00   0.00000000000000E+00
      0.00000000000000E+00   0.00000000000000E+00   0.00000000000000E+00  -6.07863605301795E-16
      7.17863496691358E-03
      0.00000000000000E+00   0.00000000000000E+00   0.00000000000000E+00   0.00000000000000E+00  -1.64059608219828E-15
     -1.01016795854865E-19  -1.64069709899414E-15   3.65993901693586E-16   1.00000000000000E+00   1.00000000000000E+00
      0.00000000000000E+00   0.00000000000000E+00   1.62815509310607E-15   3.27988170890727E-20   1.62818789192316E-15
      8.22951107434064E-16  -4.85642730066173E-01  -4.85642730066173E-01   0.00000000000000E+00   0.00000000000000E+00
      0.00000000000000E+00   0.00000000000000E+00   0.00000000000000E+00  -6.04350067503712E-16
      9.50531349407078E-03
      0.00000000000000E+00   0.00000000000000E+00   0.00000000000000E+00   0.00000000000000E+00  -1.66823612513065E-15
     -1.01554198232040E-19  -1.66833767932888E-15   3.65645707059369E-16   1.00000000000000E+00   1.00000000000000E+00
      0.00000000000000E+00   0.00000000000000E+00   1.69597835706958E-15   3.27973716637560E-20   1.69601115444124E-15
      8.22029218775024E-16  -4.80989373011858E-01  -4.80989373011858E-01   0.00000000000000E+00   0.00000000000000E+00
      0.00000000000000E+00   0.00000000000000E+00   0.00000000000000E+00  -6.00198643662797E-16
      1.22663053462973E-02
      0.00000000000000E+00   0.00000000000000E+00   0.00000000000000E+00   0.00000000000000E+00  -1.73930151228316E-15
     -1.02236505646259E-19  -1.73940374878881E-15   3.65229492339977E-16   1.00000000000000E+00   1.00000000000000E+00
      0.00000000000000E+00   0.00000000000000E+00   1.70656141761846E-15   3.27956361386276E-20   1.70659421325460E-15
      8.20931677761138E-16  -4.75467389307405E-01  -4.75467389307405E-01   0.00000000000000E+00   0.00000000000000E+00
      0.00000000000000E+00   0.00000000000000E+00   0.00000000000000E+00  -5.95297692617066E-16
      1.55426823442728E-02
      0.00000000000000E+00   0.00000000000000E+00   0.00000000000000E+00   0.00000000000000E+00  -1.78432392174879E-15
     -1.03110045123003E-19  -1.78442703179392E-15   3.64731246964337E-16   1.00000000000000E+00   1.00000000000000E+00
      0.00000000000000E+00   0.00000000000000E+00   1.80235481176000E-15   3.27935481528132E-20   1.80238760530816E-15
      8.19624326739204E-16  -4.68914635311454E-01  -4.68914635311454E-01   0.00000000000000E+00   0.00000000000000E+00
      0.00000000000000E+00   0.00000000000000E+00   0.00000000000000E+00  -5.89517785670907E-16
      1.94306497152037E-02
      0.00000000000000E+00   0.00000000000000E+00   0.00000000000000E+00   0.00000000000000E+00  -1.85069498570776E-15
     -1.04237656588407E-19  -1.85079922336435E-15   3.64133763242961E-16   1.00000000000000E+00   1.00000000000000E+00
      0.00000000000000E+00   0.00000000000000E+00   1.83417391565033E-15   3.27910304674535E-20   1.83420670668080E-15
      8.18066143001139E-16  -4.61138700569592E-01  -4.61138700569592E-01   0.00000000000000E+00   0.00000000000000E+00
      0.00000000000000E+00   0.00000000000000E+00   0.00000000000000E+00  -5.82709609262520E-16
      2.40443709953751E-02
      0.00000000000000E+00   0.00000000000000E+00   0.00000000000000E+00   0.00000000000000E+00  -1.96570642918553E-15
     -1.05704049266554E-19  -1.96581213323480E-15   3.63415778829500E-16   1.00000000000000E+00   1.00000000000000E+00
      0.00000000000000E+00   0.00000000000000E+00   1.96346766912480E-15   3.27879869837444E-20   1.96350045711179E-15
      8.16207809615656E-16  -4.51911258009250E-01  -4.51911258009250E-01   0.00000000000000E+00   0.00000000000000E+00
      0.00000000000000E+00   0.00000000000000E+00   0.00000000000000E+00  -5.74701939216499E-16
      2.95193202478451E-02
      0.00000000000000E+00   0.00000000000000E+00   0.00000000000000E+00   0.00000000000000E+00  -2.06494249209433E-15
     -1.07621315193130E-19  -2.06505011340952E-15   3.62550841802344E-16   1.00000000000000E+00   1.00000000000000E+00
      0.00000000000000E+00   0.00000000000000E+00   2.09688832191436E-15   3.27842976017078E-20   2.09692110621196E-15
      8.13989989229456E-16  -4.40961359504310E-01  -4.40961359504310E-01   0.00000000000000E+00   0.00000000000000E+00
      0.00000000000000E+00   0.00000000000000E+00   0.00000000000000E+00  -5.65299876287052E-16
      3.60162600274429E-02
      0.00000000000000E+00   0.00000000000000E+00   0.00000000000000E+00   0.00000000000000E+00  -2.22921325446677E-15
     -1.10131928675882E-19  -2.22932338639545E-15   3.61505786966471E-16   1.00000000000000E+00   1.00000000000000E+00
      0.00000000000000E+00   0.00000000000000E+00   2.25358092238817E-15   3.27798115047996E-20   2.25361370219968E-15
      8.11341235183915E-16  -4.27967479945114E-01  -4.27967479945114E-01   0.00000000000000E+00   0.00000000000000E+00
      0.00000000000000E+00   0.00000000000000E+00   0.00000000000000E+00  -5.54283706990489E-16
      4.37259618992322E-02
      0.00000000000000E+00   0.00000000000000E+00   0.00000000000000E+00   0.00000000000000E+00  -2.44868126591126E-15
     -1.13403082147500E-19  -2.44879466899340E-15   3.60238629531544E-16   1.00000000000000E+00   1.00000000000000E+00
      0.00000000000000E+00   0.00000000000000E+00   2.43651050888821E-15   3.27743380479823E-20   2.43654328322625E-15
      8.08175422951198E-16  -4.12548076201536E-01  -4.12548076201536E-01   0.00000000000000E+00   0.00000000000000E+00
      0.00000000000000E+00   0.00000000000000E+00   0.00000000000000E+00  -5.41409281384298E-16
      5.28748081204222E-02
      0.00000000000000E+00   0.00000000000000E+00   0.00000000000000E+00   0.00000000000000E+00  -2.71156570645059E-15
     -1.17602172742007E-19  -2.71168330862333E-15   3.58695463215310E-16   1.00000000000000E+00   1.00000000000000E+00