DF-ISE text

Info {
  version   = 1.0
  type      = xyplot
  datasets  = [
    "time"
    "S OuterVoltage" "S InnerVoltage" "S QuasiFermiPotential" "S DisplacementCurrent" "S eCurrent"
    "S hCurrent" "S TotalCurrent" "S Charge" "D OuterVoltage" "D InnerVoltage"
    "D QuasiFermiPotential" "D DisplacementCurrent" "D eCurrent" "D hCurrent" "D TotalCurrent"
    "D Charge" "G OuterVoltage" "G InnerVoltage" "G QuasiFermiPotential" "G DisplacementCurrent"
    "G eCurrent" "G hCurrent" "G TotalCurrent" "G Charge" ]
  functions = [
    Time
    OuterVoltage InnerVoltage QuasiFermiPotential DisplacementCurrent eCurrent
    hCurrent TotalCurrent Charge OuterVoltage InnerVoltage
    QuasiFermiPotential DisplacementCurrent eCurrent hCurrent TotalCurrent
    Charge OuterVoltage InnerVoltage QuasiFermiPotential DisplacementCurrent
    eCurrent hCurrent TotalCurrent Charge ]
}

Data {
      0.00000000000000E+00
      0.00000000000000E+00   0.00000000000000E+00   0.00000000000000E+00   0.00000000000000E+00   6.11651472662637E-19
     -8.59617334447999E-34   6.11651472662636E-19   6.35237881407818E-16   0.00000000000000E+00   0.00000000000000E+00
      0.00000000000000E+00   0.00000000000000E+00   6.10652537190865E-19  -1.04017164944490E-33   6.10652537190864E-19
      8.38319663823563E-16  -5.00000000000000E-01  -5.00000000000000E-01   0.00000000000000E+00   0.00000000000000E+00
      0.00000000000000E+00   0.00000000000000E+00   0.00000000000000E+00  -3.14924880837382E-16
      0.00000000000000E+00
      0.00000000000000E+00   0.00000000000000E+00   0.00000000000000E+00   0.00000000000000E+00  -5.50486326125632E-18
      2.05592205283028E-29  -5.50486326123576E-18   6.35237878837895E-16   0.00000000000000E+00   0.00000000000000E+00
      0.00000000000000E+00   0.00000000000000E+00   2.44261015199348E-18   2.06595337617695E-29   2.44261015201414E-18
      8.38319662994269E-16  -5.00000000000000E-01  -5.00000000000000E-01   0.00000000000000E+00   0.00000000000000E+00
      0.00000000000000E+00   0.00000000000000E+00   0.00000000000000E+00  -3.14924882792351E-16
      1.00000000000000E-03
      0.00000000000000E+00   0.00000000000000E+00   0.00000000000000E+00   0.00000000000000E+00  -8.56465333870321E-18
     -4.30454013304510E-22  -8.56508379271651E-18   6.35090881069158E-16   1.00000000000000E-03   1.00000000000000E-03
      0.00000000000000E+00   0.00000000000000E+00   1.81581587130251E-13   1.03578114908591E-21   1.81581588166032E-13
      8.38812125331833E-16  -5.00000000000000E-01  -5.00000000000000E-01   0.00000000000000E+00   0.00000000000000E+00
      0.00000000000000E+00   0.00000000000000E+00   0.00000000000000E+00  -3.15343239931856E-16
      2.18666666666667E-03
      0.00000000000000E+00   0.00000000000000E+00   0.00000000000000E+00   0.00000000000000E+00  -1.28495929957958E-17
     -9.43351936658791E-22  -1.28505363477325E-17   6.34917826474859E-16   2.18666666666667E-03   2.18666666666667E-03
      0.00000000000000E+00   0.00000000000000E+00  -1.21980993784929E-18   2.23272866925084E-21  -1.21757720918004E-18
      8.39397926191517E-16  -5.00000000000000E-01  -5.00000000000000E-01   0.00000000000000E+00   0.00000000000000E+00
      0.00000000000000E+00   0.00000000000000E+00   0.00000000000000E+00  -3.15836831222199E-16
      3.61066666666667E-03
      0.00000000000000E+00   0.00000000000000E+00   0.00000000000000E+00   0.00000000000000E+00   1.83575835206418E-18
     -1.56196900279142E-21   1.83419638306139E-18   6.34712056655524E-16   3.61066666666667E-03   3.61066666666667E-03
      0.00000000000000E+00   0.00000000000000E+00   3.65911182141738E-18   3.62386840584326E-21   3.66273568982323E-18
      8.40102819963985E-16  -5.00000000000000E-01  -5.00000000000000E-01   0.00000000000000E+00   0.00000000000000E+00
      0.00000000000000E+00   0.00000000000000E+00   0.00000000000000E+00  -3.16425220416524E-16
      5.30048000000000E-03
      0.00000000000000E+00   0.00000000000000E+00   0.00000000000000E+00   0.00000000000000E+00  -1.22482769259911E-18
     -2.30035102235144E-21  -1.22712804362146E-18   6.34470549559067E-16   5.30048000000000E-03   5.30048000000000E-03
      0.00000000000000E+00   0.00000000000000E+00   9.75000350585818E-18   5.21259805632993E-21   9.75521610391451E-18
      8.40942016780764E-16  -5.00000000000000E-01  -5.00000000000000E-01   0.00000000000000E+00   0.00000000000000E+00
      0.00000000000000E+00   0.00000000000000E+00   0.00000000000000E+00  -3.17117915596172E-16
      7.30572515555556E-03
      0.00000000000000E+00   0.00000000000000E+00   0.00000000000000E+00   0.00000000000000E+00  -1.89847117492860E-17
     -3.18263386528714E-21  -1.89878943831513E-17   6.34187615855841E-16   7.30572515555556E-03   7.30572515555556E-03
      0.00000000000000E+00   0.00000000000000E+00   4.26295420245600E-18   7.01331530841838E-21   4.26996751776442E-18
      8.41941580069621E-16  -5.00000000000000E-01  -5.00000000000000E-01   0.00000000000000E+00   0.00000000000000E+00
      0.00000000000000E+00   0.00000000000000E+00   0.00000000000000E+00  -3.17932358256759E-16
      9.68528274014815E-03
      0.00000000000000E+00   0.00000000000000E+00   0.00000000000000E+00   0.00000000000000E+00  -1.96047510188415E-17
     -4.23815559439795E-21  -1.96089891744359E-17   6.33856855248688E-16   9.68528274014815E-03   9.68528274014815E-03
      0.00000000000000E+00   0.00000000000000E+00   9.12472770739256E-18   9.03582716229227E-21   9.13376353455485E-18
      8.43132790002753E-16  -5.00000000000000E-01  -5.00000000000000E-01   0.00000000000000E+00   0.00000000000000E+00
      0.00000000000000E+00   0.00000000000000E+00   0.00000000000000E+00  -3.18888520717234E-16
      1.25090244071980E-02
      0.00000000000000E+00   0.00000000000000E+00   0.00000000000000E+00   0.00000000000000E+00  -2.02265730981778E-17
     -5.50278949264011E-21  -2.02320758876704E-17   6.33471109130824E-16   1.25090244071980E-02   1.25090244071980E-02
      0.00000000000000E+00   0.00000000000000E+00   1.94414999515123E-17   1.12826340402577E-20   1.94527825855526E-17
      8.44553199150963E-16  -5.00000000000000E-01  -5.00000000000000E-01   0.00000000000000E+00   0.00000000000000E+00
      0.00000000000000E+00   0.00000000000000E+00   0.00000000000000E+00  -3.20009202188911E-16
      1.58598645187639E-02
      0.00000000000000E+00   0.00000000000000E+00   0.00000000000000E+00   0.00000000000000E+00  -2.69826143868093E-17
     -7.02067296922373E-21  -2.69896350597785E-17   6.33022426535727E-16   1.58598645187639E-02   1.58598645187639E-02
      0.00000000000000E+00   0.00000000000000E+00   3.21534687938969E-17   1.37456576743162E-20   3.21672144515712E-17
      8.46247904791279E-16  -5.00000000000000E-01  -5.00000000000000E-01   0.00000000000000E+00   0.00000000000000E+00
      0.00000000000000E+00   0.00000000000000E+00   0.00000000000000E+00  -3.21320334588935E-16
      1.98361947844887E-02
      0.00000000000000E+00   0.00000000000000E+00   0.00000000000000E+00   0.00000000000000E+00  -3.31348881566578E-17
     -8.84660183411625E-21  -3.31437347584919E-17   6.32502011836244E-16   1.98361947844887E-02   1.98361947844887E-02
      0.00000000000000E+00   0.00000000000000E+00   3.08885671369690E-17   1.64025615094422E-20   3.09049696984785E-17
      8.48271041247280E-16  -5.00000000000000E-01  -5.00000000000000E-01   0.00000000000000E+00   0.00000000000000E+00
      0.00000000000000E+00   0.00000000000000E+00   0.00000000000000E+00  -3.22851369690099E-16
      2.45547733664821E-02
      0.00000000000000E+00   0.00000000000000E+00   0.00000000000000E+00   0.00000000000000E+00  -4.60523332095566E-17
     -1.10491884219630E-20  -4.60633823979786E-17   6.31900195954717E-16   2.45547733664821E-02   2.45547733664821E-02
      0.00000000000000E+00   0.00000000000000E+00   3.98924559706468E-17   1.92132378230469E-20   3.99116692084698E-17
      8.50687578180066E-16  -5.00000000000000E-01  -5.00000000000000E-01   0.00000000000000E+00   0.00000000000000E+00
      0.00000000000000E+00   0.00000000000000E+00   0.00000000000000E+00  -3.24635670375193E-16
      3.01541532837810E-02
      0.00000000000000E+00   0.00000000000000E+00   0.00000000000000E+00   0.00000000000000E+00  -5.22345679271683E-17
     -1.37161109230364E-20  -5.22482840380914E-17   6.31206174704036E-16   3.01541532837810E-02   3.01541532837810E-02
      0.00000000000000E+00   0.00000000000000E+00   5.54727499890680E-17   2.21169495297374E-20   5.54948669385978E-17
      8.53575207567494E-16  -5.00000000000000E-01  -5.00000000000000E-01   0.00000000000000E+00   0.00000000000000E+00
      0.00000000000000E+00   0.00000000000000E+00   0.00000000000000E+00  -3.26711440767228E-16
      3.67987507856423E-02
      0.00000000000000E+00   0.00000000000000E+00   0.00000000000000E+00   0.00000000000000E+00  -6.95049435060550E-17
     -1.69613341990488E-20  -6.95219048402541E-17   6.30407754694923E-16   3.67987507856423E-02   3.67987507856423E-02
      0.00000000000000E+00   0.00000000000000E+00   7.03433180705181E-17   2.50319459204519E-20   7.03683500164385E-17
      8.57026628175867E-16  -5.00000000000000E-01  -5.00000000000000E-01   0.00000000000000E+00   0.00000000000000E+00
      0.00000000000000E+00   0.00000000000000E+00   0.00000000000000E+00  -3.29122714102654E-16
      4.46836731545178E-02
      0.00000000000000E+00   0.00000000000000E+00   0.00000000000000E+00   0.00000000000000E+00  -9.17448590585365E-17
     -2.09370145939174E-20  -9.17657960731304E-17   6.29490718835280E-16   4.46836731545178E-02   4.46836731545178E-02
      0.00000000000000E+00   0.00000000000000E+00   6.83055252645564E-17   2.78586440092701E-20   6.83333839085657E-17
      8.61151892246293E-16  -5.00000000000000E-01  -5.00000000000000E-01   0.00000000000000E+00   0.00000000000000E+00
      0.00000000000000E+00   0.00000000000000E+00   0.00000000000000E+00  -3.31921205638575E-16
      5.40404476989167E-02
      0.00000000000000E+00   0.00000000000000E+00   0.00000000000000E+00   0.00000000000000E+00  -9.18571766819856E-17
     -2.58516302251044E-20  -9.18830283122107E-17   6.28438010212129E-16   5.40404476989167E-02   5.40404476989167E-02
      0.00000000000000E+00   0.00000000000000E+00   9.72630377218930E-17   3.04881756358582E-20   9.72935258975289E-17
      8.66081101599428E-16  -5.00000000000000E-01  -5.00000000000000E-01   0.00000000000000E+00   0.00000000000000E+00
      0.00000000000000E+00   0.00000000000000E+00   0.00000000000000E+00  -3.35168638185988E-16
      6.50190631643447E-02
      0.00000000000000E+00   0.00000000000000E+00   0.00000000000000E+00   0.00000000000000E+00  -1.07418179114267E-16
     -3.19323905973630E-20  -1.07450111504864E-16   6.27241091393960E-16   6.50190631643447E-02   6.50190631643447E-02
      0.00000000000000E+00   0.00000000000000E+00   1.18765733168756E-16   3.27938268112022E-20   1.18798526995567E-16
      8.71900160732907E-16  -5.00000000000000E-01  -5.00000000000000E-01   0.00000000000000E+00   0.00000000000000E+00
      0.00000000000000E+00   0.00000000000000E+00   0.00000000000000E+00  -3.38899706768583E-16
      7.79006386437802E-02
      0.00000000000000E+00   0.00000000000000E+00   0.00000000000000E+00   0.00000000000000E+00  -1.34175719113008E-16
     -3.95657047434374E-20  -1.34215284817752E-16   6.25876409068022E-16   7.79006386437802E-02   7.79006386437802E-02
      0.00000000000000E+00   0.00000000000000E+00   1.31085260161740E-16   3.47098285788332E-20   1.31119969990319E-16
      8.78763034375632E-16  -5.00000000000000E-01  -5.00000000000000E-01   0.00000000000000E+00   0.00000000000000E+00
      0.00000000000000E+00   0.00000000000000E+00   0.00000000000000E+00  -3.43195066846241E-16
      9.30150205396513E-02
      0.00000000000000E+00   0.00000000000000E+00   0.00000000000000E+00   0.00000000000000E+00  -1.47427645643530E-16
     -4.93084180414563E-20  -1.47476954061572E-16   6.24315792342558E-16   9.30150205396513E-02   9.30150205396513E-02
      0.00000000000000E+00   0.00000000000000E+00   1.50160775138863E-16   3.62082469941100E-20   1.50196983385857E-16
      8.86849146617785E-16  -5.00000000000000E-01  -5.00000000000000E-01   0.00000000000000E+00   0.00000000000000E+00
      0.00000000000000E+00   0.00000000000000E+00   0.00000000000000E+00  -3.48150382286414E-16
      1.10749228630807E-01
      0.00000000000000E+00   0.00000000000000E+00   0.00000000000000E+00   0.00000000000000E+00  -1.88080766772905E-16
     -6.19443687846716E-20  -1.88142711141690E-16   6.22530570286419E-16   1.10749228630807E-01   1.10749228630807E-01
      0.00000000000000E+00   0.00000000000000E+00   1.79263415534031E-16   3.73052446716588E-20   1.79300720778703E-16
      8.96372568685717E-16  -5.00000000000000E-01  -5.00000000000000E-01   0.00000000000000E+00   0.00000000000000E+00
      0.00000000000000E+00   0.00000000000000E+00   0.00000000000000E+00  -3.53868884726186E-16
      1.31557366124429E-01
      0.00000000000000E+00   0.00000000000000E+00   0.00000000000000E+00   0.00000000000000E+00  -2.24612898561584E-16
     -7.85075331076114E-20  -2.24691406094691E-16   6.20502339810778E-16   1.31557366124429E-01   1.31557366124429E-01
      0.00000000000000E+00   0.00000000000000E+00   2.11094199869001E-16   3.80566976896348E-20   2.11132256566690E-16
      9.07598618026006E-16  -5.00000000000000E-01  -5.00000000000000E-01   0.00000000000000E+00   0.00000000000000E+00
      0.00000000000000E+00   0.00000000000000E+00   0.00000000000000E+00  -3.60440626969129E-16
      1.55972247450279E-01
      0.00000000000000E+00   0.00000000000000E+00   0.00000000000000E+00   0.00000000000000E+00  -2.64507497120529E-16
     -1.00156953991546E-19  -2.64607654074520E-16   6.18244544933574E-16   1.55972247450279E-01   1.55972247450279E-01
      0.00000000000000E+00   0.00000000000000E+00   2.54510384097190E-16   3.85440802206883E-20   2.54548928177410E-16
      9.20871866260400E-16  -5.00000000000000E-01  -5.00000000000000E-01   0.00000000000000E+00   0.00000000000000E+00
      0.00000000000000E+00   0.00000000000000E+00   0.00000000000000E+00  -3.67900172200188E-16
      1.84293509788265E-01
      0.00000000000000E+00   0.00000000000000E+00   0.00000000000000E+00   0.00000000000000E+00  -3.01531779697853E-16
     -1.27395990233946E-19  -3.01659175688087E-16   6.15856882379414E-16   1.84293509788265E-01   1.84293509788265E-01
      0.00000000000000E+00   0.00000000000000E+00   2.91959267201078E-16   3.88531052972593E-20   2.91998120306375E-16
      9.36470358583452E-16  -5.00000000000000E-01  -5.00000000000000E-01   0.00000000000000E+00   0.00000000000000E+00
      0.00000000000000E+00   0.00000000000000E+00   0.00000000000000E+00  -3.76080130463698E-16
      2.16768557269156E-01
      0.00000000000000E+00   0.00000000000000E+00   0.00000000000000E+00   0.00000000000000E+00  -3.34980700739228E-16
     -1.59228540096194E-19  -3.35139929279324E-16   6.13517790416640E-16   2.16768557269156E-01   2.16768557269156E-01
      0.00000000000000E+00   0.00000000000000E+00   3.31700694980706E-16   3.90630107748985E-20   3.31739757991481E-16
      9.54710301091013E-16  -5.00000000000000E-01  -5.00000000000000E-01   0.00000000000000E+00   0.00000000000000E+00
      0.00000000000000E+00   0.00000000000000E+00   0.00000000000000E+00  -3.84649310448333E-16
      2.54006611713911E-01
      0.00000000000000E+00   0.00000000000000E+00   0.00000000000000E+00   0.00000000000000E+00  -3.74792658183013E-16
     -1.92727475796682E-19  -3.74985385658809E-16   6.11430241382058E-16   2.54006611713911E-01   2.54006611713911E-01
      0.00000000000000E+00   0.00000000000000E+00   3.71047750937845E-16   3.92330466279139E-20   3.71086983984473E-16
      9.76147677624424E-16  -5.00000000000000E-01  -5.00000000000000E-01   0.00000000000000E+00   0.00000000000000E+00
      0.00000000000000E+00   0.00000000000000E+00   0.00000000000000E+00  -3.93273544647790E-16
      2.96209740084633E-01
      0.00000000000000E+00   0.00000000000000E+00   0.00000000000000E+00   0.00000000000000E+00  -4.04500740535316E-16
     -2.22949539309899E-19  -4.04723690074626E-16   6.09790406667885E-16   2.96209740084633E-01   2.96209740084633E-01
      0.00000000000000E+00   0.00000000000000E+00   4.06453458834565E-16   3.93957165089446E-20   4.06492854551073E-16
      1.00105180119035E-15  -5.00000000000000E-01  -5.00000000000000E-01   0.00000000000000E+00   0.00000000000000E+00
      0.00000000000000E+00   0.00000000000000E+00   0.00000000000000E+00  -4.01590482229292E-16
      3.44039952238118E-01
      0.00000000000000E+00   0.00000000000000E+00   0.00000000000000E+00   0.00000000000000E+00  -4.27124530274476E-16
     -2.46122708666155E-19  -4.27370652983142E-16   6.08656019753303E-16   3.44039952238118E-01   3.44039952238118E-01
      0.00000000000000E+00   0.00000000000000E+00   4.32537915274804E-16   3.95662750448826E-20   4.32577481549849E-16
      1.02981045545224E-15  -5.00000000000000E-01  -5.00000000000000E-01   0.00000000000000E+00   0.00000000000000E+00
      0.00000000000000E+00   0.00000000000000E+00   0.00000000000000E+00  -4.09579593038994E-16
      3.98247526012067E-01
      0.00000000000000E+00   0.00000000000000E+00   0.00000000000000E+00   0.00000000000000E+00  -4.36948706529172E-16
     -2.61388464406759E-19  -4.37210094993579E-16   6.07957832525815E-16   3.98247526012067E-01   3.98247526012067E-01
      0.00000000000000E+00   0.00000000000000E+00   4.37394057425563E-16   3.97482684115239E-20   4.37433805693974E-16
      1.06268372235491E-15  -5.00000000000000E-01  -5.00000000000000E-01   0.00000000000000E+00   0.00000000000000E+00
      0.00000000000000E+00   0.00000000000000E+00   0.00000000000000E+00  -4.17496106629601E-16
      4.59682776289210E-01
      0.00000000000000E+00   0.00000000000000E+00   0.00000000000000E+00   0.00000000000000E+00  -4.47271100331966E-16
     -2.70853712305957E-19  -4.47541954044272E-16   6.07542459931204E-16   4.59682776289210E-01   4.59682776289210E-01
      0.00000000000000E+00   0.00000000000000E+00   4.55122455306213E-16   3.99396780533810E-20   4.55162394984266E-16
      1.09980918768829E-15  -5.00000000000000E-01  -5.00000000000000E-01   0.00000000000000E+00   0.00000000000000E+00
      0.00000000000000E+00   0.00000000000000E+00   0.00000000000000E+00  -4.25789630190699E-16
      5.29309393269972E-01
      0.00000000000000E+00   0.00000000000000E+00   0.00000000000000E+00   0.00000000000000E+00  -4.52502927072451E-16
     -2.78638525534656E-19  -4.52781565597985E-16   6.07210188566076E-16   5.29309393269972E-01   5.29309393269972E-01
      0.00000000000000E+00   0.00000000000000E+00   4.50120695209986E-16   4.01354546443670E-20   4.50160830664630E-16
      1.14114047175195E-15  -5.00000000000000E-01  -5.00000000000000E-01   0.00000000000000E+00   0.00000000000000E+00
      0.00000000000000E+00   0.00000000000000E+00   0.00000000000000E+00  -4.35036271111768E-16
      6.09147914074579E-01
      0.00000000000000E+00   0.00000000000000E+00   0.00000000000000E+00   0.00000000000000E+00  -4.70522441886775E-16
     -2.92753797319225E-19  -4.70815195684094E-16   6.06627886120126E-16   6.09147914074579E-01   6.09147914074579E-01
      0.00000000000000E+00   0.00000000000000E+00   4.63165679461017E-16   4.03284487779608E-20   4.63206007909795E-16
      1.18664925843272E-15  -5.00000000000000E-01  -5.00000000000000E-01   0.00000000000000E+00   0.00000000000000E+00
      0.00000000000000E+00   0.00000000000000E+00   0.00000000000000E+00  -4.46239877792494E-16
      6.99631570986467E-01
      0.00000000000000E+00   0.00000000000000E+00   0.00000000000000E+00   0.00000000000000E+00  -5.02650971036165E-16
     -3.43716106426457E-19  -5.02994687142591E-16   6.04713218488602E-16   6.99631570986467E-01   6.99631570986467E-01
      0.00000000000000E+00   0.00000000000000E+00   4.99818196908884E-16   4.04989007371844E-20   4.99858695809622E-16
      1.23392277962537E-15  -5.00000000000000E-01  -5.00000000000000E-01   0.00000000000000E+00   0.00000000000000E+00
      0.00000000000000E+00   0.00000000000000E+00   0.00000000000000E+00  -4.61701315417938E-16
      7.99766817968957E-01
      0.00000000000000E+00   0.00000000000000E+00   0.00000000000000E+00   0.00000000000000E+00  -6.26171027810016E-16
     -5.53317480968994E-19  -6.26724345290985E-16   5.98852508760538E-16   7.99766817968957E-01   7.99766817968957E-01
      0.00000000000000E+00   0.00000000000000E+00   6.19021750744707E-16   4.06309359948345E-20   6.19062381680702E-16
      1.27926150582057E-15  -5.00000000000000E-01  -5.00000000000000E-01   0.00000000000000E+00   0.00000000000000E+00
      0.00000000000000E+00   0.00000000000000E+00   0.00000000000000E+00  -4.86399648357619E-16
      9.09248021336479E-01
      0.00000000000000E+00   0.00000000000000E+00   0.00000000000000E+00   0.00000000000000E+00  -7.92520713711655E-16
     -9.68992533363257E-19  -7.93489706245018E-16   5.91697754778009E-16   9.09248021336479E-01   9.09248021336479E-01
      0.00000000000000E+00   0.00000000000000E+00   7.91281244403666E-16   4.07481012236945E-20   7.91321992504890E-16
      1.32541086361047E-15  -5.00000000000000E-01  -5.00000000000000E-01   0.00000000000000E+00   0.00000000000000E+00
      0.00000000000000E+00   0.00000000000000E+00   0.00000000000000E+00  -5.15127545850390E-16
      1.00000000000000E+00
      0.00000000000000E+00   0.00000000000000E+00   0.00000000000000E+00   0.00000000000000E+00  -8.40147863603656E-16
     -1.17676331984593E-18  -8.41324626923502E-16   5.89169949085360E-16   1.00000000000000E+00   1.00000000000000E+00
      0.00000000000000E+00   0.00000000000000E+00   8.44342606799487E-16   4.08444782830879E-20   8.44383451277770E-16
      1.36453389671125E-15  -5.00000000000000E-01  -5.00000000000000E-01   0.00000000000000E+00   0.00000000000000E+00
      0.00000000000000E+00   0.00000000000000E+00   0.00000000000000E+00  -5.32816442411606E-16
      0.00000000000000E+00
      0.00000000000000E+00   0.00000000000000E+00   0.00000000000000E+00   0.00000000000000E+00  -8.46604701394889E-16
     -1.17673061643192E-18  -8.47781432011321E-16   5.89170312136277E-16   1.00000000000000E+00   1.00000000000000E+00
      0.00000000000000E+00   0.00000000000000E+00   8.37042955305313E-16   4.08444790455194E-20   8.37083799784358E-16
      1.36453410468936E-15  -5.00000000000000E-01  -5.00000000000000E-01   0.00000000000000E+00   0.00000000000000E+00
      0.00000000000000E+00   0.00000000000000E+00   0.00000000000000E+00  -5.32815766183801E-16
      1.00000000000000E-03
      0.00000000000000E+00   0.00000000000000E+00   0.00000000000000E+00   0.00000000000000E+00  -8.38130970680845E-16
     -1.16970816565252E-18  -8.39300678846498E-16   5.89218095219252E-16   1.00000000000000E+00   1.00000000000000E+00
      0.00000000000000E+00   0.00000000000000E+00   8.43050437973355E-16   4.08446403091180E-20   8.43091282613665E-16
      1.36428808122397E-15  -4.98000000000000E-01  -4.98000000000000E-01   0.00000000000000E+00   0.00000000000000E+00
      0.00000000000000E+00   0.00000000000000E+00   0.00000000000000E+00  -5.30416559266272E-16
      2.14666666666667E-03
      0.00000000000000E+00   0.00000000000000E+00   0.00000000000000E+00   0.00000000000000E+00  -8.46433508886199E-16
     -1.16177881121275E-18  -8.47595287697412E-16   5.89271968266420E-16   1.00000000000000E+00   1.00000000000000E+00
      0.00000000000000E+00   0.00000000000000E+00   8.44333987066967E-16   4.08448234676764E-20   8.44374831890434E-16
      1.36400495176610E-15  -4.95706666666667E-01  -4.95706666666667E-01   0.00000000000000E+00   0.00000000000000E+00
      0.00000000000000E+00   0.00000000000000E+00   0.00000000000000E+00  -5.27668049138803E-16
      3.52266666666667E-03
      0.00000000000000E+00   0.00000000000000E+00   0.00000000000000E+00   0.00000000000000E+00  -8.41161096156382E-16
     -1.15240768106456E-18  -8.42313503837447E-16   5.89335625061030E-16   1.00000000000000E+00   1.00000000000000E+00
      0.00000000000000E+00   0.00000000000000E+00   8.51627397281268E-16   4.08450414204972E-20   8.51668242322688E-16
      1.36366393975713E-15  -4.92954666666667E-01  -4.92954666666667E-01   0.00000000000000E+00   0.00000000000000E+00
      0.00000000000000E+00   0.00000000000000E+00   0.00000000000000E+00  -5.24372892771751E-16
      5.15552000000000E-03
      0.00000000000000E+00   0.00000000000000E+00   0.00000000000000E+00   0.00000000000000E+00  -8.48777706669093E-16
     -1.14133276135327E-18  -8.49919039430446E-16   5.89411533942136E-16   1.00000000000000E+00   1.00000000000000E+00
      0.00000000000000E+00   0.00000000000000E+00   8.46468569613194E-16   4.08453011826731E-20   8.46509414914377E-16
      1.36325852274446E-15  -4.89688960000000E-01  -4.89688960000000E-01   0.00000000000000E+00   0.00000000000000E+00
      0.00000000000000E+00   0.00000000000000E+00   0.00000000000000E+00  -5.20463644423229E-16
      7.09317262222222E-03
      0.00000000000000E+00   0.00000000000000E+00   0.00000000000000E+00   0.00000000000000E+00  -8.49914054268585E-16
     -1.12826990763491E-18  -8.51042324176220E-16   5.89501960447445E-16   1.00000000000000E+00   1.00000000000000E+00
      0.00000000000000E+00   0.00000000000000E+00   8.43455460218518E-16   4.08456106627187E-20   8.43496305829181E-16
      1.36277630059058E-15  -4.85813654755556E-01  -4.85813654755556E-01   0.00000000000000E+00   0.00000000000000E+00
      0.00000000000000E+00   0.00000000000000E+00   0.00000000000000E+00  -5.15826364624383E-16
      9.39252040059259E-03
      0.00000000000000E+00   0.00000000000000E+00   0.00000000000000E+00   0.00000000000000E+00  -8.33601593322043E-16
     -1.11292436278743E-18  -8.34714517684831E-16   5.89609242433300E-16   1.00000000000000E+00   1.00000000000000E+00
      0.00000000000000E+00   0.00000000000000E+00   8.32714240367431E-16   4.08459785743923E-20   8.32755086346006E-16
      1.36220222999049E-15  -4.81214959198815E-01  -4.81214959198815E-01   0.00000000000000E+00   0.00000000000000E+00
      0.00000000000000E+00   0.00000000000000E+00   0.00000000000000E+00  -5.10326731444152E-16
      1.21210797642588E-02
      0.00000000000000E+00   0.00000000000000E+00   0.00000000000000E+00   0.00000000000000E+00  -8.50802353902388E-16
     -1.09494769679650E-18  -8.51897301599185E-16   5.89736319416903E-16   1.00000000000000E+00   1.00000000000000E+00
      0.00000000000000E+00   0.00000000000000E+00   8.37425502787503E-16   4.08464157006664E-20   8.37466349203204E-16
      1.36151838733080E-15  -4.75757840471482E-01  -4.75757840471482E-01   0.00000000000000E+00   0.00000000000000E+00
      0.00000000000000E+00   0.00000000000000E+00   0.00000000000000E+00  -5.03805351212756E-16
      1.53589702091426E-02
      0.00000000000000E+00   0.00000000000000E+00   0.00000000000000E+00   0.00000000000000E+00  -8.52477207966335E-16
     -1.07393662896675E-18  -8.53551144595301E-16   5.89886819384345E-16   1.00000000000000E+00   1.00000000000000E+00
      0.00000000000000E+00   0.00000000000000E+00   8.45138191233101E-16   4.08469352714788E-20   8.45179038168372E-16
      1.36070337220739E-15  -4.69282059581715E-01  -4.69282059581715E-01   0.00000000000000E+00   0.00000000000000E+00
      0.00000000000000E+00   0.00000000000000E+00   0.00000000000000E+00  -4.96073216744605E-16
      1.92012668704048E-02
      0.00000000000000E+00   0.00000000000000E+00   0.00000000000000E+00   0.00000000000000E+00  -8.56679911110944E-16
     -1.04944447883865E-18  -8.57729355589783E-16   5.90065031176519E-16   1.00000000000000E+00   1.00000000000000E+00
      0.00000000000000E+00   0.00000000000000E+00   8.48984163716096E-16   4.08475531601430E-20   8.49025011269256E-16
      1.35973152493727E-15  -4.61597466259190E-01  -4.61597466259190E-01   0.00000000000000E+00   0.00000000000000E+00
      0.00000000000000E+00   0.00000000000000E+00   0.00000000000000E+00  -4.86906570881143E-16
      2.37607922417692E-02
      0.00000000000000E+00   0.00000000000000E+00   0.00000000000000E+00   0.00000000000000E+00  -8.50512402376030E-16
     -1.02104510463652E-18  -8.51533447480667E-16   5.90275249416462E-16   1.00000000000000E+00   1.00000000000000E+00
      0.00000000000000E+00   0.00000000000000E+00   8.39523829384250E-16   4.08482868423401E-20   8.39564677671092E-16
      1.35857165902568E-15  -4.52478415516462E-01  -4.52478415516462E-01   0.00000000000000E+00   0.00000000000000E+00
      0.00000000000000E+00   0.00000000000000E+00   0.00000000000000E+00  -4.76041957469844E-16
      2.91106353441702E-02
      0.00000000000000E+00   0.00000000000000E+00   0.00000000000000E+00   0.00000000000000E+00  -8.42353468033644E-16
     -9.88520479635259E-19  -8.43341988513279E-16   5.90521406138612E-16   1.00000000000000E+00   1.00000000000000E+00
      0.00000000000000E+00   0.00000000000000E+00   8.53659070071709E-16   4.08491511102330E-20   8.53699919222820E-16
      1.35720298655918E-15  -4.41778729311660E-01  -4.41778729311660E-01   0.00000000000000E+00   0.00000000000000E+00
      0.00000000000000E+00   0.00000000000000E+00   0.00000000000000E+00  -4.63309020113980E-16
      3.53877845843206E-02
      0.00000000000000E+00   0.00000000000000E+00   0.00000000000000E+00   0.00000000000000E+00  -8.47643051893715E-16
     -9.51509539009832E-19  -8.48594561432724E-16   5.90808395620847E-16   1.00000000000000E+00   1.00000000000000E+00
      0.00000000000000E+00   0.00000000000000E+00   8.49768755355006E-16   4.08501677596399E-20   8.49809605522765E-16
      1.35558684036222E-15  -4.29224430831359E-01  -4.29224430831359E-01   0.00000000000000E+00   0.00000000000000E+00
      0.00000000000000E+00   0.00000000000000E+00   0.00000000000000E+00  -4.48390012751374E-16
      4.26692777028952E-02
      0.00000000000000E+00   0.00000000000000E+00   0.00000000000000E+00   0.00000000000000E+00  -8.47697017677881E-16
     -9.10029065724089E-19  -8.48607046743605E-16   5.91139462943407E-16   1.00000000000000E+00   1.00000000000000E+00