DF-ISE text

Info {
  version   = 1.0
  type      = xyplot
  datasets  = [
    "time"
    "S OuterVoltage" "S InnerVoltage" "S QuasiFermiPotential" "S DisplacementCurrent" "S eCurrent"
    "S hCurrent" "S TotalCurrent" "S Charge" "D OuterVoltage" "D InnerVoltage"
    "D QuasiFermiPotential" "D DisplacementCurrent" "D eCurrent" "D hCurrent" "D TotalCurrent"
    "D Charge" "G OuterVoltage" "G InnerVoltage" "G QuasiFermiPotential" "G DisplacementCurrent"
    "G eCurrent" "G hCurrent" "G TotalCurrent" "G Charge" ]
  functions = [
    Time
    OuterVoltage InnerVoltage QuasiFermiPotential DisplacementCurrent eCurrent
    hCurrent TotalCurrent Charge OuterVoltage InnerVoltage
    QuasiFermiPotential DisplacementCurrent eCurrent hCurrent TotalCurrent
    Charge OuterVoltage InnerVoltage QuasiFermiPotential DisplacementCurrent
    eCurrent hCurrent TotalCurrent Charge ]
}

Data {
      0.00000000000000E+00
      0.00000000000000E+00   0.00000000000000E+00   0.00000000000000E+00   0.00000000000000E+00  -1.57988164271496E-18
      2.23627920285019E-35  -1.57988164271496E-18   5.18696504599011E-16   0.00000000000000E+00   0.00000000000000E+00
      0.00000000000000E+00   0.00000000000000E+00  -7.56553595287237E-19   1.48816567547586E-35  -7.56553595287237E-19
      6.85721474384102E-16  -5.00000000000000E-01  -5.00000000000000E-01   0.00000000000000E+00   0.00000000000000E+00
      0.00000000000000E+00   0.00000000000000E+00   0.00000000000000E+00  -3.98674924322925E-16
      0.00000000000000E+00
      0.00000000000000E+00   0.00000000000000E+00   0.00000000000000E+00   0.00000000000000E+00   1.38417976843422E-17
      1.74657578409646E-31   1.38417976843423E-17   5.18696504166433E-16   0.00000000000000E+00   0.00000000000000E+00
      0.00000000000000E+00   0.00000000000000E+00  -2.14467941350609E-17   1.74545515927301E-31  -2.14467941350607E-17
      6.85721473891271E-16  -5.00000000000000E-01  -5.00000000000000E-01   0.00000000000000E+00   0.00000000000000E+00
      0.00000000000000E+00   0.00000000000000E+00   0.00000000000000E+00  -3.98674924333587E-16
      1.00000000000000E-03
      0.00000000000000E+00   0.00000000000000E+00   0.00000000000000E+00   0.00000000000000E+00  -3.99611712502452E-17
     -2.57560289757982E-23  -3.99611970062742E-17   5.18664715054652E-16   1.00000000000000E-03   1.00000000000000E-03
      0.00000000000000E+00   0.00000000000000E+00   3.13756244549359E-17   1.75890516899710E-22   3.13758003454528E-17
      6.86068004046840E-16  -5.00000000000000E-01  -5.00000000000000E-01   0.00000000000000E+00   0.00000000000000E+00
      0.00000000000000E+00   0.00000000000000E+00   0.00000000000000E+00  -3.98940100740527E-16
      2.17333333333333E-03
      0.00000000000000E+00   0.00000000000000E+00   0.00000000000000E+00   0.00000000000000E+00   1.26990467392278E-17
     -5.56414235277881E-23   1.26989910978043E-17   5.18627866399081E-16   2.17333333333333E-03   2.17333333333333E-03
      0.00000000000000E+00   0.00000000000000E+00  -3.07556834834056E-17   3.75264296133568E-22  -3.07553082191095E-17
      6.86474788562284E-16  -5.00000000000000E-01  -5.00000000000000E-01   0.00000000000000E+00   0.00000000000000E+00
      0.00000000000000E+00   0.00000000000000E+00   0.00000000000000E+00  -3.99249518917437E-16
      3.56568888888889E-03
      0.00000000000000E+00   0.00000000000000E+00   0.00000000000000E+00   0.00000000000000E+00   2.66808544334795E-17
     -9.06479036416076E-23   2.66807637855758E-17   5.18584749620099E-16   3.56568888888889E-03   3.56568888888889E-03
      0.00000000000000E+00   0.00000000000000E+00   8.41001349438773E-18   6.02353236045352E-22   8.41061584762377E-18
      6.86957749767296E-16  -5.00000000000000E-01  -5.00000000000000E-01   0.00000000000000E+00   0.00000000000000E+00
      0.00000000000000E+00   0.00000000000000E+00   0.00000000000000E+00  -3.99614360480099E-16
      5.21795081481481E-03
      0.00000000000000E+00   0.00000000000000E+00   0.00000000000000E+00   0.00000000000000E+00   1.09948028530852E-17
     -1.31564856433228E-22   1.09946712882288E-17   5.18534409432443E-16   5.21795081481481E-03   5.21795081481481E-03
      0.00000000000000E+00   0.00000000000000E+00   1.55252884304716E-17   8.58961407595246E-22   1.55261473918792E-17
      6.87531171974545E-16  -5.00000000000000E-01  -5.00000000000000E-01   0.00000000000000E+00   0.00000000000000E+00
      0.00000000000000E+00   0.00000000000000E+00   0.00000000000000E+00  -4.00044145991995E-16
      7.17863496691358E-03
      0.00000000000000E+00   0.00000000000000E+00   0.00000000000000E+00   0.00000000000000E+00   2.84957175932417E-17
     -1.79275430770362E-22   2.84955383178109E-17   5.18475777913387E-16   7.17863496691358E-03   7.17863496691358E-03
      0.00000000000000E+00   0.00000000000000E+00  -1.16881721108459E-17   1.14617235905418E-21  -1.16870259384869E-17
      6.88212010719478E-16  -5.00000000000000E-01  -5.00000000000000E-01   0.00000000000000E+00   0.00000000000000E+00
      0.00000000000000E+00   0.00000000000000E+00   0.00000000000000E+00  -4.00549918080263E-16
      9.50531349407078E-03
      0.00000000000000E+00   0.00000000000000E+00   0.00000000000000E+00   0.00000000000000E+00  -3.70168602361808E-17
     -2.34762437528355E-22  -3.70170949986183E-17   5.18407666565178E-16   9.50531349407078E-03   9.50531349407078E-03
      0.00000000000000E+00   0.00000000000000E+00  -2.17748038009362E-17   1.46397077293096E-21  -2.17733398301633E-17
      6.89020380526256E-16  -5.00000000000000E-01  -5.00000000000000E-01   0.00000000000000E+00   0.00000000000000E+00
      0.00000000000000E+00   0.00000000000000E+00   0.00000000000000E+00  -4.01144472307193E-16
      1.22663053462973E-02
      0.00000000000000E+00   0.00000000000000E+00   0.00000000000000E+00   0.00000000000000E+00   5.16912586227697E-19
     -2.99117831581183E-22   5.16613468396116E-19   5.18328754099156E-16   1.22663053462973E-02   1.22663053462973E-02
      0.00000000000000E+00   0.00000000000000E+00   2.59554720221407E-17   1.81079520878503E-21   2.59572828173494E-17
      6.89980122279526E-16  -5.00000000000000E-01  -5.00000000000000E-01   0.00000000000000E+00   0.00000000000000E+00
      0.00000000000000E+00   0.00000000000000E+00   0.00000000000000E+00  -4.01842639500583E-16
      1.55426823442728E-02
      0.00000000000000E+00   0.00000000000000E+00   0.00000000000000E+00   0.00000000000000E+00  -2.07416329283455E-17
     -3.73562618554257E-22  -2.07420064909641E-17   5.18237563338717E-16   1.55426823442728E-02   1.55426823442728E-02
      0.00000000000000E+00   0.00000000000000E+00   2.70184978248801E-17   2.18305397757266E-21   2.70206808788577E-17
      6.91119456900260E-16  -5.00000000000000E-01  -5.00000000000000E-01   0.00000000000000E+00   0.00000000000000E+00
      0.00000000000000E+00   0.00000000000000E+00   0.00000000000000E+00  -4.02661649792046E-16
      1.94306497152037E-02
      0.00000000000000E+00   0.00000000000000E+00   0.00000000000000E+00   0.00000000000000E+00   2.09059837673295E-17
     -4.59490006318133E-22   2.09055242773232E-17   5.18132415794071E-16   1.94306497152037E-02   1.94306497152037E-02
      0.00000000000000E+00   0.00000000000000E+00   7.97835072204267E-18   2.57467056195453E-21   7.98092539260462E-18
      6.92471729756975E-16  -5.00000000000000E-01  -5.00000000000000E-01   0.00000000000000E+00   0.00000000000000E+00
      0.00000000000000E+00   0.00000000000000E+00   0.00000000000000E+00  -4.03621627078817E-16
      2.40443709953751E-02
      0.00000000000000E+00   0.00000000000000E+00   0.00000000000000E+00   0.00000000000000E+00  -1.44066641000206E-17
     -5.58558684347100E-22  -1.44072226587049E-17   5.18011341674303E-16   2.40443709953751E-02   2.40443709953751E-02
      0.00000000000000E+00   0.00000000000000E+00   4.03348660643526E-17   2.97676657605645E-21   4.03378428309286E-17
      6.94076243453837E-16  -5.00000000000000E-01  -5.00000000000000E-01   0.00000000000000E+00   0.00000000000000E+00
      0.00000000000000E+00   0.00000000000000E+00   0.00000000000000E+00  -4.04746303121731E-16
      2.95193202478451E-02
      0.00000000000000E+00   0.00000000000000E+00   0.00000000000000E+00   0.00000000000000E+00  -2.74256805736119E-17
     -6.72879992562144E-22  -2.74263534536045E-17   5.17871912696306E-16   2.95193202478451E-02   2.95193202478451E-02
      0.00000000000000E+00   0.00000000000000E+00   4.57869270168913E-18   3.37763328826065E-21   4.58207033497739E-18
      6.95979172286838E-16  -5.00000000000000E-01  -5.00000000000000E-01   0.00000000000000E+00   0.00000000000000E+00
      0.00000000000000E+00   0.00000000000000E+00   0.00000000000000E+00  -4.06064079554525E-16
      3.60162600274429E-02
      0.00000000000000E+00   0.00000000000000E+00   0.00000000000000E+00   0.00000000000000E+00  -3.23263235757993E-17
     -8.05379417698568E-22  -3.23271289552170E-17   5.17710942413657E-16   3.60162600274429E-02   3.60162600274429E-02
      0.00000000000000E+00   0.00000000000000E+00   8.99516643156917E-18   3.76315473397698E-21   8.99892958630315E-18
      6.98234539463717E-16  -5.00000000000000E-01  -5.00000000000000E-01   0.00000000000000E+00   0.00000000000000E+00
      0.00000000000000E+00   0.00000000000000E+00   0.00000000000000E+00  -4.07609649403326E-16
      4.37259618992322E-02
      0.00000000000000E+00   0.00000000000000E+00   0.00000000000000E+00   0.00000000000000E+00  -1.07033379809276E-17
     -9.60460729765003E-22  -1.07042984416574E-17   5.17523977548736E-16   4.37259618992322E-02   4.37259618992322E-02
      0.00000000000000E+00   0.00000000000000E+00  -4.51537727834253E-18   4.11778996319620E-21  -4.51125948837933E-18
      7.00905232572762E-16  -5.00000000000000E-01  -5.00000000000000E-01   0.00000000000000E+00   0.00000000000000E+00
      0.00000000000000E+00   0.00000000000000E+00   0.00000000000000E+00  -4.09426468196816E-16
      5.28748081204222E-02
      0.00000000000000E+00   0.00000000000000E+00   0.00000000000000E+00   0.00000000000000E+00  -4.60848732555087E-18
     -1.14517351690564E-21  -4.60963249906778E-18   5.17304481461413E-16   5.28748081204222E-02   5.28748081204222E-02
      0.00000000000000E+00   0.00000000000000E+00  -1.59781534249235E-18   4.42603901650971E-21  -1.59338930347584E-18
      7.04064033273111E-16  -5.00000000000000E-01  -5.00000000000000E-01   0.00000000000000E+00   0.00000000000000E+00
      0.00000000000000E+00   0.00000000000000E+00   0.00000000000000E+00  -4.11570445731103E-16
      6.36094543532852E-02
      0.00000000000000E+00   0.00000000000000E+00   0.00000000000000E+00   0.00000000000000E+00  -3.25784130613983E-17
     -1.36856625403703E-21  -3.25797816276523E-17   5.17045584283483E-16   6.36094543532852E-02   6.36094543532852E-02
      0.00000000000000E+00   0.00000000000000E+00   2.81202724807832E-17   4.67179439928312E-21   2.81249442751825E-17
      7.07752869866964E-16  -5.00000000000000E-01  -5.00000000000000E-01   0.00000000000000E+00   0.00000000000000E+00
      0.00000000000000E+00   0.00000000000000E+00   0.00000000000000E+00  -4.14086547318486E-16
      7.62047725998443E-02
      0.00000000000000E+00   0.00000000000000E+00   0.00000000000000E+00   0.00000000000000E+00   7.68343707840028E-18
     -1.64826026872777E-21   7.68178881813156E-18   5.16733978770775E-16   7.62047725998443E-02   7.62047725998443E-02
      0.00000000000000E+00   0.00000000000000E+00   3.91579507304103E-17   4.84644586561035E-21   3.91627971762760E-17
      7.12053597243325E-16  -5.00000000000000E-01  -5.00000000000000E-01   0.00000000000000E+00   0.00000000000000E+00
      0.00000000000000E+00   0.00000000000000E+00   0.00000000000000E+00  -4.17061434233243E-16
      9.09832793424738E-02
      0.00000000000000E+00   0.00000000000000E+00   0.00000000000000E+00   0.00000000000000E+00  -5.50126846647932E-17
     -2.01215067551228E-21  -5.50146968154687E-17   5.16350862242170E-16   9.09832793424738E-02   9.09832793424738E-02
      0.00000000000000E+00   0.00000000000000E+00   6.25226513212511E-18   4.94466359302828E-21   6.25720979571814E-18
      7.17059032303534E-16  -5.00000000000000E-01  -5.00000000000000E-01   0.00000000000000E+00   0.00000000000000E+00
      0.00000000000000E+00   0.00000000000000E+00   0.00000000000000E+00  -4.20607834561505E-16
      1.08323393920492E-01
      0.00000000000000E+00   0.00000000000000E+00   0.00000000000000E+00   0.00000000000000E+00  -1.21614443515981E-17
     -2.50180330909319E-21  -1.21639461549072E-17   5.15872027607551E-16   1.08323393920492E-01   1.08323393920492E-01
      0.00000000000000E+00   0.00000000000000E+00   4.86404730655647E-17   4.96767020631843E-21   4.86454407357710E-17
      7.22876003603450E-16  -5.00000000000000E-01  -5.00000000000000E-01   0.00000000000000E+00   0.00000000000000E+00
      0.00000000000000E+00   0.00000000000000E+00   0.00000000000000E+00  -4.24864865864532E-16
      1.28669128358701E-01
      0.00000000000000E+00   0.00000000000000E+00   0.00000000000000E+00   0.00000000000000E+00  -6.00920321731101E-17
     -3.17181325858243E-21  -6.00952039863687E-17   5.15271991489714E-16   1.28669128358701E-01   1.28669128358701E-01
      0.00000000000000E+00   0.00000000000000E+00   1.21526511471136E-17   4.93111888287879E-21   1.21575822659965E-17
      7.29632252932446E-16  -5.00000000000000E-01  -5.00000000000000E-01   0.00000000000000E+00   0.00000000000000E+00
      0.00000000000000E+00   0.00000000000000E+00   0.00000000000000E+00  -4.29983375118246E-16
      1.52541456766199E-01
      0.00000000000000E+00   0.00000000000000E+00   0.00000000000000E+00   0.00000000000000E+00  -7.32809586512051E-17
     -4.07453805604661E-21  -7.32850331892611E-17   5.14536280905068E-16   1.52541456766199E-01   1.52541456766199E-01
      0.00000000000000E+00   0.00000000000000E+00   3.74595556618440E-17   4.85768351957553E-21   3.74644133453636E-17
      7.37490160977310E-16  -5.00000000000000E-01  -5.00000000000000E-01   0.00000000000000E+00   0.00000000000000E+00
      0.00000000000000E+00   0.00000000000000E+00   0.00000000000000E+00  -4.36081022586732E-16
      1.80551655430996E-01
      0.00000000000000E+00   0.00000000000000E+00   0.00000000000000E+00   0.00000000000000E+00  -9.87471661794215E-17
     -5.21417833439478E-21  -9.87523803577559E-17   5.13682136360895E-16   1.80551655430996E-01   1.80551655430996E-01
      0.00000000000000E+00   0.00000000000000E+00   8.39328971008232E-17   4.76394180549305E-21   8.39376610426287E-17
      7.46666491290691E-16  -5.00000000000000E-01  -5.00000000000000E-01   0.00000000000000E+00   0.00000000000000E+00
      0.00000000000000E+00   0.00000000000000E+00   0.00000000000000E+00  -4.43166161351503E-16
      2.13416955197692E-01
      0.00000000000000E+00   0.00000000000000E+00   0.00000000000000E+00   0.00000000000000E+00  -7.18046744028021E-17
     -6.48414836728770E-21  -7.18111585511694E-17   5.12768354834732E-16   2.13416955197692E-01   2.13416955197692E-01
      0.00000000000000E+00   0.00000000000000E+00   1.22435644190479E-16   4.66400267734980E-21   1.22440308193156E-16
      7.57441763348400E-16  -5.00000000000000E-01  -5.00000000000000E-01   0.00000000000000E+00   0.00000000000000E+00
      0.00000000000000E+00   0.00000000000000E+00   0.00000000000000E+00  -4.51101223325446E-16
      2.51978906923948E-01
      0.00000000000000E+00   0.00000000000000E+00   0.00000000000000E+00   0.00000000000000E+00  -1.05160795601095E-16
     -7.71608927743625E-21  -1.05168511690373E-16   5.11847012751814E-16   2.51978906923948E-01   2.51978906923948E-01
      0.00000000000000E+00   0.00000000000000E+00   8.57275602292053E-17   4.59027260321667E-21   8.57321505018085E-17
      7.70124196168211E-16  -5.00000000000000E-01  -5.00000000000000E-01   0.00000000000000E+00   0.00000000000000E+00
      0.00000000000000E+00   0.00000000000000E+00   0.00000000000000E+00  -4.59778268347393E-16
      2.96710770926406E-01
      0.00000000000000E+00   0.00000000000000E+00   0.00000000000000E+00   0.00000000000000E+00  -1.25404794582850E-16
     -8.90204969343079E-21  -1.25413696632544E-16   5.10885013435160E-16   2.96710770926406E-01   2.96710770926406E-01
      0.00000000000000E+00   0.00000000000000E+00   1.27808301307294E-16   4.59295867408315E-21   1.27812894265968E-16
      7.84820353967476E-16  -5.00000000000000E-01  -5.00000000000000E-01   0.00000000000000E+00   0.00000000000000E+00
      0.00000000000000E+00   0.00000000000000E+00   0.00000000000000E+00  -4.69335434268177E-16
      3.48599733169256E-01
      0.00000000000000E+00   0.00000000000000E+00   0.00000000000000E+00   0.00000000000000E+00  -1.69428970794905E-16
     -1.01314865001347E-20  -1.69439102281405E-16   5.09806400366711E-16   3.48599733169256E-01   3.48599733169256E-01
      0.00000000000000E+00   0.00000000000000E+00   1.73694493533331E-16   4.63051807545200E-21   1.73699124051407E-16
      8.01779673971571E-16  -5.00000000000000E-01  -5.00000000000000E-01   0.00000000000000E+00   0.00000000000000E+00
      0.00000000000000E+00   0.00000000000000E+00   0.00000000000000E+00  -4.80113669036363E-16
      4.08790929370963E-01
      0.00000000000000E+00   0.00000000000000E+00   0.00000000000000E+00   0.00000000000000E+00  -1.96606216244491E-16
     -1.14252946332212E-20  -1.96617641539124E-16   5.08552157640528E-16   4.08790929370963E-01   4.08790929370963E-01
      0.00000000000000E+00   0.00000000000000E+00   2.08766073131576E-16   4.66022530522726E-21   2.08770733356881E-16
      8.21314039875922E-16  -5.00000000000000E-01  -5.00000000000000E-01   0.00000000000000E+00   0.00000000000000E+00
      0.00000000000000E+00   0.00000000000000E+00   0.00000000000000E+00  -4.92370314258230E-16
      4.79415266247632E-01
      0.00000000000000E+00   0.00000000000000E+00   0.00000000000000E+00   0.00000000000000E+00  -2.93319801616069E-16
     -1.29007104768186E-20  -2.93332702326546E-16   5.07002895769915E-16   4.79415266247632E-01   4.79415266247632E-01
      0.00000000000000E+00   0.00000000000000E+00   2.30650579404743E-16   4.66629076333319E-21   2.30655245695506E-16
      8.44019084220281E-16  -5.00000000000000E-01  -5.00000000000000E-01   0.00000000000000E+00   0.00000000000000E+00
      0.00000000000000E+00   0.00000000000000E+00   0.00000000000000E+00  -5.06644408075769E-16
      5.61339497024568E-01
      0.00000000000000E+00   0.00000000000000E+00   0.00000000000000E+00   0.00000000000000E+00  -4.17544398997539E-16
     -1.43675300054403E-20  -4.17558766527544E-16   5.05108625584106E-16   5.61339497024568E-01   5.61339497024568E-01
      0.00000000000000E+00   0.00000000000000E+00   4.28507453736994E-16   4.66294029654428E-21   4.28512116677291E-16
      8.70102037175104E-16  -5.00000000000000E-01  -5.00000000000000E-01   0.00000000000000E+00   0.00000000000000E+00
      0.00000000000000E+00   0.00000000000000E+00   0.00000000000000E+00  -5.22947203338174E-16
      6.56371604725814E-01
      0.00000000000000E+00   0.00000000000000E+00   0.00000000000000E+00   0.00000000000000E+00  -7.22844908936378E-16
     -1.55971099334021E-20  -7.22860506046311E-16   5.02743109096298E-16   6.56371604725814E-01   6.56371604725814E-01
      0.00000000000000E+00   0.00000000000000E+00   7.39386645129940E-16   4.66097592412627E-21   7.39391306105864E-16
      9.00026448135843E-16  -5.00000000000000E-01  -5.00000000000000E-01   0.00000000000000E+00   0.00000000000000E+00
      0.00000000000000E+00   0.00000000000000E+00   0.00000000000000E+00  -5.41527772807804E-16
      7.66608849659259E-01
      0.00000000000000E+00   0.00000000000000E+00   0.00000000000000E+00   0.00000000000000E+00  -1.66925273371749E-15
     -1.63777533626232E-20  -1.66926911147085E-15   4.99688495997216E-16   7.66608849659259E-01   7.66608849659259E-01
      0.00000000000000E+00   0.00000000000000E+00   1.75415961095811E-15   4.66218105364107E-21   1.75416427313916E-15
      9.34295593780131E-16  -5.00000000000000E-01  -5.00000000000000E-01   0.00000000000000E+00   0.00000000000000E+00
      0.00000000000000E+00   0.00000000000000E+00   0.00000000000000E+00  -5.62809878409055E-16
      8.93014223849610E-01
      0.00000000000000E+00   0.00000000000000E+00   0.00000000000000E+00   0.00000000000000E+00  -5.27040548338675E-15
     -1.69609496870390E-20  -5.27042244433643E-15   4.95642824138141E-16   8.93014223849610E-01   8.93014223849610E-01
      0.00000000000000E+00   0.00000000000000E+00   5.24152188711721E-15   4.66620657607090E-21   5.24152655332378E-15
      9.73013513799964E-16  -5.00000000000000E-01  -5.00000000000000E-01   0.00000000000000E+00   0.00000000000000E+00
      0.00000000000000E+00   0.00000000000000E+00   0.00000000000000E+00  -5.87426047591935E-16
      1.00000000000000E+00
      0.00000000000000E+00   0.00000000000000E+00   0.00000000000000E+00   0.00000000000000E+00  -1.49561118370731E-14
     -1.77219292889650E-20  -1.49561295590024E-14   4.91764502993339E-16   1.00000000000000E+00   1.00000000000000E+00
      0.00000000000000E+00   0.00000000000000E+00   1.49937482361821E-14   4.66971568339725E-21   1.49937529058978E-14
      1.00536689749371E-15  -5.00000000000000E-01  -5.00000000000000E-01   0.00000000000000E+00   0.00000000000000E+00
      0.00000000000000E+00   0.00000000000000E+00   0.00000000000000E+00  -6.08826918066380E-16
      0.00000000000000E+00
      0.00000000000000E+00   0.00000000000000E+00   0.00000000000000E+00   0.00000000000000E+00  -1.49600677710840E-14
     -1.77219315328668E-20  -1.49600854930155E-14   4.91764502698185E-16   1.00000000000000E+00   1.00000000000000E+00
      0.00000000000000E+00   0.00000000000000E+00   1.49751772179078E-14   4.66971568322903E-21   1.49751818876234E-14
      1.00536689730807E-15  -5.00000000000000E-01  -5.00000000000000E-01   0.00000000000000E+00   0.00000000000000E+00
      0.00000000000000E+00   0.00000000000000E+00   0.00000000000000E+00  -6.08826919645353E-16
      1.00000000000000E-03
      0.00000000000000E+00   0.00000000000000E+00   0.00000000000000E+00   0.00000000000000E+00  -1.50551251095486E-14
     -1.77278824682239E-20  -1.50551428374310E-14   4.91626355480885E-16   1.00000000000000E+00   1.00000000000000E+00
      0.00000000000000E+00   0.00000000000000E+00   1.50989092069393E-14   4.66970730352417E-21   1.50989138766466E-14
      1.00497424516107E-15  -4.98000000000000E-01  -4.98000000000000E-01   0.00000000000000E+00   0.00000000000000E+00
      0.00000000000000E+00   0.00000000000000E+00   0.00000000000000E+00  -6.07050732147976E-16
      2.17333333333333E-03
      0.00000000000000E+00   0.00000000000000E+00   0.00000000000000E+00   0.00000000000000E+00  -1.51196229539811E-14
     -1.77357037085548E-20  -1.51196406896848E-14   4.91463703932622E-16   1.00000000000000E+00   1.00000000000000E+00
      0.00000000000000E+00   0.00000000000000E+00   1.51456812032329E-14   4.66969740587637E-21   1.51456858729303E-14
      1.00451283884737E-15  -4.95653333333333E-01  -4.95653333333333E-01   0.00000000000000E+00   0.00000000000000E+00
      0.00000000000000E+00   0.00000000000000E+00   0.00000000000000E+00  -6.04971227646992E-16
      3.56568888888889E-03
      0.00000000000000E+00   0.00000000000000E+00   0.00000000000000E+00   0.00000000000000E+00  -1.52267425965529E-14
     -1.77461879931862E-20  -1.52267603427409E-14   4.91269897651852E-16   1.00000000000000E+00   1.00000000000000E+00
      0.00000000000000E+00   0.00000000000000E+00   1.51811734507663E-14   4.66968556859280E-21   1.51811781204519E-14
      1.00396433568525E-15  -4.92868622222222E-01  -4.92868622222222E-01   0.00000000000000E+00   0.00000000000000E+00
      0.00000000000000E+00   0.00000000000000E+00   0.00000000000000E+00  -6.02509959466584E-16
      5.21795081481481E-03
      0.00000000000000E+00   0.00000000000000E+00   0.00000000000000E+00   0.00000000000000E+00  -1.53630696642902E-14
     -1.77603568271260E-20  -1.53630874246470E-14   4.91038781758494E-16   1.00000000000000E+00   1.00000000000000E+00
      0.00000000000000E+00   0.00000000000000E+00   1.53846752739590E-14   4.66967139159329E-21   1.53846799436304E-14
      1.00331209252314E-15  -4.89564098370370E-01  -4.89564098370370E-01   0.00000000000000E+00   0.00000000000000E+00
      0.00000000000000E+00   0.00000000000000E+00   0.00000000000000E+00  -5.99598320049769E-16
      7.17863496691358E-03
      0.00000000000000E+00   0.00000000000000E+00   0.00000000000000E+00   0.00000000000000E+00  -1.55269875550951E-14
     -1.77796638088460E-20  -1.55270053347589E-14   4.90762902470522E-16   1.00000000000000E+00   1.00000000000000E+00
      0.00000000000000E+00   0.00000000000000E+00   1.55352528394587E-14   4.66965438425490E-21   1.55352575091131E-14
      1.00253620915744E-15  -4.85642730066173E-01  -4.85642730066173E-01   0.00000000000000E+00   0.00000000000000E+00
      0.00000000000000E+00   0.00000000000000E+00   0.00000000000000E+00  -5.96156008298999E-16
      9.50531349407078E-03
      0.00000000000000E+00   0.00000000000000E+00   0.00000000000000E+00   0.00000000000000E+00  -1.56994612435506E-14
     -1.78061866716068E-20  -1.56994790497372E-14   4.90433196008800E-16   1.00000000000000E+00   1.00000000000000E+00
      0.00000000000000E+00   0.00000000000000E+00   1.56674915867332E-14   4.66963394187232E-21   1.56674962563671E-14
      1.00161286420760E-15  -4.80989373011858E-01  -4.80989373011858E-01   0.00000000000000E+00   0.00000000000000E+00
      0.00000000000000E+00   0.00000000000000E+00   0.00000000000000E+00  -5.92089318627541E-16
      1.22663053462973E-02
      0.00000000000000E+00   0.00000000000000E+00   0.00000000000000E+00   0.00000000000000E+00  -1.59175373818087E-14
     -1.78429154304232E-20  -1.59175552247242E-14   4.90038585189312E-16   1.00000000000000E+00   1.00000000000000E+00
      0.00000000000000E+00   0.00000000000000E+00   1.59210781569450E-14   4.66960931478966E-21   1.59210828265543E-14
      1.00051350697176E-15  -4.75467389307405E-01  -4.75467389307405E-01   0.00000000000000E+00   0.00000000000000E+00
      0.00000000000000E+00   0.00000000000000E+00   0.00000000000000E+00  -5.87289322495337E-16
      1.55426823442728E-02
      0.00000000000000E+00   0.00000000000000E+00   0.00000000000000E+00   0.00000000000000E+00  -1.62174485018302E-14
     -1.78941760592516E-20  -1.62174663960063E-14   4.89565449473878E-16   1.00000000000000E+00   1.00000000000000E+00
      0.00000000000000E+00   0.00000000000000E+00   1.62297581219700E-14   4.66957956759528E-21   1.62297627915496E-14
      9.99203872389459E-16  -4.68914635311454E-01  -4.68914635311454E-01   0.00000000000000E+00   0.00000000000000E+00
      0.00000000000000E+00   0.00000000000000E+00   0.00000000000000E+00  -5.81630018287610E-16
      1.94306497152037E-02
      0.00000000000000E+00   0.00000000000000E+00   0.00000000000000E+00   0.00000000000000E+00  -1.65768591313046E-14
     -1.79662561136365E-20  -1.65768770975607E-14   4.88996916532140E-16   1.00000000000000E+00   1.00000000000000E+00
      0.00000000000000E+00   0.00000000000000E+00   1.65624338775758E-14   4.66954352446263E-21   1.65624385471194E-14
      9.97642776697379E-16  -4.61138700569592E-01  -4.61138700569592E-01   0.00000000000000E+00   0.00000000000000E+00
      0.00000000000000E+00   0.00000000000000E+00   0.00000000000000E+00  -5.74966602438436E-16
      2.40443709953751E-02
      0.00000000000000E+00   0.00000000000000E+00   0.00000000000000E+00   0.00000000000000E+00  -1.70155783554340E-14
     -1.80683071158760E-20  -1.70155964237411E-14   4.88311899009033E-16   1.00000000000000E+00   1.00000000000000E+00
      0.00000000000000E+00   0.00000000000000E+00   1.71128595454688E-14   4.66949969497639E-21   1.71128642149685E-14
      9.95780639090993E-16  -4.51911258009250E-01  -4.51911258009250E-01   0.00000000000000E+00   0.00000000000000E+00
      0.00000000000000E+00   0.00000000000000E+00   0.00000000000000E+00  -5.67134132806957E-16
      2.95193202478451E-02
      0.00000000000000E+00   0.00000000000000E+00   0.00000000000000E+00   0.00000000000000E+00  -1.75809097506681E-14
     -1.82135977710238E-20  -1.75809279642659E-14   4.87483760517289E-16   1.00000000000000E+00   1.00000000000000E+00
      0.00000000000000E+00   0.00000000000000E+00   1.76252833341620E-14   4.66944617172564E-21   1.76252880036082E-14
      9.93557653038795E-16  -4.40961359504310E-01  -4.40961359504310E-01   0.00000000000000E+00   0.00000000000000E+00
      0.00000000000000E+00   0.00000000000000E+00   0.00000000000000E+00  -5.57947078845247E-16
      3.60162600274429E-02
      0.00000000000000E+00   0.00000000000000E+00   0.00000000000000E+00   0.00000000000000E+00  -1.83007681303642E-14
     -1.84210953763958E-20  -1.83007865514596E-14   4.86478435995844E-16   1.00000000000000E+00   1.00000000000000E+00
      0.00000000000000E+00   0.00000000000000E+00   1.83460002472650E-14   4.66938048599449E-21   1.83460049166455E-14
      9.90901492399906E-16  -4.27967479945114E-01  -4.27967479945114E-01   0.00000000000000E+00   0.00000000000000E+00
      0.00000000000000E+00   0.00000000000000E+00   0.00000000000000E+00  -5.47200650494190E-16
      4.37259618992322E-02
      0.00000000000000E+00   0.00000000000000E+00   0.00000000000000E+00   0.00000000000000E+00  -1.92548846733842E-14
     -1.87170603735823E-20  -1.92549033904446E-14   4.85251735248449E-16   1.00000000000000E+00   1.00000000000000E+00
      0.00000000000000E+00   0.00000000000000E+00   1.92227010775073E-14   4.66929939839818E-21   1.92227057468067E-14
      9.87724358536281E-16  -4.12548076201536E-01  -4.12548076201536E-01   0.00000000000000E+00   0.00000000000000E+00
      0.00000000000000E+00   0.00000000000000E+00   0.00000000000000E+00  -5.34675580803735E-16
      5.27720120954650E-02
      0.00000000000000E+00   0.00000000000000E+00   0.00000000000000E+00   0.00000000000000E+00  -2.05159287782948E-14
     -1.91306669888590E-20  -2.05159479089618E-14   4.83762622443179E-16   1.00000000000000E+00   1.00000000000000E+00