DF-ISE text

Info {
  version   = 1.0
  type      = xyplot
  datasets  = [
    "time"
    "S OuterVoltage" "S InnerVoltage" "S QuasiFermiPotential" "S DisplacementCurrent" "S eCurrent"
    "S hCurrent" "S TotalCurrent" "S Charge" "D OuterVoltage" "D InnerVoltage"
    "D QuasiFermiPotential" "D DisplacementCurrent" "D eCurrent" "D hCurrent" "D TotalCurrent"
    "D Charge" "G OuterVoltage" "G InnerVoltage" "G QuasiFermiPotential" "G DisplacementCurrent"
    "G eCurrent" "G hCurrent" "G TotalCurrent" "G Charge" ]
  functions = [
    Time
    OuterVoltage InnerVoltage QuasiFermiPotential DisplacementCurrent eCurrent
    hCurrent TotalCurrent Charge OuterVoltage InnerVoltage
    QuasiFermiPotential DisplacementCurrent eCurrent hCurrent TotalCurrent
    Charge OuterVoltage InnerVoltage QuasiFermiPotential DisplacementCurrent
    eCurrent hCurrent TotalCurrent Charge ]
}

Data {
      0.00000000000000E+00
      0.00000000000000E+00   0.00000000000000E+00   0.00000000000000E+00   0.00000000000000E+00   2.30287413828607E-18
      8.25894182165873E-36   2.30287413828607E-18   6.29282986650673E-16   0.00000000000000E+00   0.00000000000000E+00
      0.00000000000000E+00   0.00000000000000E+00  -1.10295099068225E-18   9.94978146099014E-36  -1.10295099068225E-18
      8.34169508330540E-16  -5.00000000000000E-01  -5.00000000000000E-01   0.00000000000000E+00   0.00000000000000E+00
      0.00000000000000E+00   0.00000000000000E+00   0.00000000000000E+00  -3.14804452267763E-16
      0.00000000000000E+00
      0.00000000000000E+00   0.00000000000000E+00   0.00000000000000E+00   0.00000000000000E+00  -3.09071485638913E-17
     -3.73924077018055E-32  -3.09071485638913E-17   6.29282986438201E-16   0.00000000000000E+00   0.00000000000000E+00
      0.00000000000000E+00   0.00000000000000E+00   1.33919362051242E-17  -3.73595579502976E-32   1.33919362051241E-17
      8.34169507965245E-16  -5.00000000000000E-01  -5.00000000000000E-01   0.00000000000000E+00   0.00000000000000E+00
      0.00000000000000E+00   0.00000000000000E+00   0.00000000000000E+00  -3.14804452269128E-16
      1.00000000000000E-03
      0.00000000000000E+00   0.00000000000000E+00   0.00000000000000E+00   0.00000000000000E+00  -7.08445442024721E-19
     -2.85552114274721E-23  -7.08473997236148E-19   6.29234505765219E-16   1.00000000000000E-03   1.00000000000000E-03
      0.00000000000000E+00   0.00000000000000E+00   3.04699936984738E-18   1.73245104260814E-22   3.04717261495164E-18
      8.34580970083228E-16  -5.00000000000000E-01  -5.00000000000000E-01   0.00000000000000E+00   0.00000000000000E+00
      0.00000000000000E+00   0.00000000000000E+00   0.00000000000000E+00  -3.15065404623886E-16
      2.17333333333333E-03
      0.00000000000000E+00   0.00000000000000E+00   0.00000000000000E+00   0.00000000000000E+00  -2.92626280439439E-17
     -6.17270867042382E-23  -2.92626897710306E-17   6.29178467817577E-16   2.17333333333333E-03   2.17333333333333E-03
      0.00000000000000E+00   0.00000000000000E+00   2.06869208274801E-17   3.69771061797931E-22   2.06872905985419E-17
      8.35064368000784E-16  -5.00000000000000E-01  -5.00000000000000E-01   0.00000000000000E+00   0.00000000000000E+00
      0.00000000000000E+00   0.00000000000000E+00   0.00000000000000E+00  -3.15369007263601E-16
      3.56568888888889E-03
      0.00000000000000E+00   0.00000000000000E+00   0.00000000000000E+00   0.00000000000000E+00  -1.16664195038495E-17
     -1.00633915099392E-22  -1.16665201377646E-17   6.29113120580331E-16   3.56568888888889E-03   3.56568888888889E-03
      0.00000000000000E+00   0.00000000000000E+00   1.98877737690854E-17   5.93817835094064E-22   1.98883675869205E-17
      8.35638826738500E-16  -5.00000000000000E-01  -5.00000000000000E-01   0.00000000000000E+00   0.00000000000000E+00
      0.00000000000000E+00   0.00000000000000E+00   0.00000000000000E+00  -3.15725771020326E-16
      5.21795081481481E-03
      0.00000000000000E+00   0.00000000000000E+00   0.00000000000000E+00   0.00000000000000E+00   1.13533205522185E-17
     -1.46175395083180E-22   1.13531743768234E-17   6.29037140594228E-16   5.21795081481481E-03   5.21795081481481E-03
      0.00000000000000E+00   0.00000000000000E+00   2.77685529984168E-17   8.47256845775037E-22   2.77694002552626E-17
      8.36321623315821E-16  -5.00000000000000E-01  -5.00000000000000E-01   0.00000000000000E+00   0.00000000000000E+00
      0.00000000000000E+00   0.00000000000000E+00   0.00000000000000E+00  -3.16144357082503E-16
      7.17863496691358E-03
      0.00000000000000E+00   0.00000000000000E+00   0.00000000000000E+00   0.00000000000000E+00  -1.60292836255522E-17
     -1.99361111200750E-22  -1.60294829866634E-17   6.28949090689746E-16   7.17863496691358E-03   7.17863496691358E-03
      0.00000000000000E+00   0.00000000000000E+00   2.96647638113845E-17   1.13127423508053E-21   2.96658950856196E-17
      8.37133336718012E-16  -5.00000000000000E-01  -5.00000000000000E-01   0.00000000000000E+00   0.00000000000000E+00
      0.00000000000000E+00   0.00000000000000E+00   0.00000000000000E+00  -3.16634637907281E-16
      9.50531349407078E-03
      0.00000000000000E+00   0.00000000000000E+00   0.00000000000000E+00   0.00000000000000E+00  -3.73412774877461E-17
     -2.61315234751205E-22  -3.73415388029808E-17   6.28847431959890E-16   9.50531349407078E-03   9.50531349407078E-03
      0.00000000000000E+00   0.00000000000000E+00   6.74428063412876E-18   1.44599876578765E-21   6.74572663289455E-18
      8.38098474310750E-16  -5.00000000000000E-01  -5.00000000000000E-01   0.00000000000000E+00   0.00000000000000E+00
      0.00000000000000E+00   0.00000000000000E+00   0.00000000000000E+00  -3.17207822736214E-16
      1.22663053462973E-02
      0.00000000000000E+00   0.00000000000000E+00   0.00000000000000E+00   0.00000000000000E+00  -2.17474754969468E-17
     -3.33281992740692E-22  -2.17478087789395E-17   6.28730538001895E-16   1.22663053462973E-02   1.22663053462973E-02
      0.00000000000000E+00   0.00000000000000E+00   3.02810646322093E-17   1.79005732583398E-21   3.02828546895351E-17
      8.39246206167832E-16  -5.00000000000000E-01  -5.00000000000000E-01   0.00000000000000E+00   0.00000000000000E+00
      0.00000000000000E+00   0.00000000000000E+00   0.00000000000000E+00  -3.17876606569113E-16
      1.55426823442728E-02
      0.00000000000000E+00   0.00000000000000E+00   0.00000000000000E+00   0.00000000000000E+00  -2.21810408173977E-17
     -4.16634806542870E-22  -2.21814574522042E-17   6.28596706996203E-16   1.55426823442728E-02   1.55426823442728E-02
      0.00000000000000E+00   0.00000000000000E+00   2.50833282909284E-17   2.16008779714394E-21   2.50854883787255E-17
      8.40611219697470E-16  -5.00000000000000E-01  -5.00000000000000E-01   0.00000000000000E+00   0.00000000000000E+00
      0.00000000000000E+00   0.00000000000000E+00   0.00000000000000E+00  -3.18655361693283E-16
      1.94306497152037E-02
      0.00000000000000E+00   0.00000000000000E+00   0.00000000000000E+00   0.00000000000000E+00  -6.38278791651856E-17
     -5.12897610302359E-22  -6.38283920627959E-17   6.28444159066253E-16   1.94306497152037E-02   1.94306497152037E-02
      0.00000000000000E+00   0.00000000000000E+00   2.16654908438191E-17   2.55027113346499E-21   2.16680411149525E-17
      8.42234701468792E-16  -5.00000000000000E-01  -5.00000000000000E-01   0.00000000000000E+00   0.00000000000000E+00
      0.00000000000000E+00   0.00000000000000E+00   0.00000000000000E+00  -3.19560416338544E-16
      2.40443709953751E-02
      0.00000000000000E+00   0.00000000000000E+00   0.00000000000000E+00   0.00000000000000E+00  -5.09489612282429E-17
     -6.23792369254001E-22  -5.09495850206121E-17   6.28270999962315E-16   2.40443709953751E-02   2.40443709953751E-02
      0.00000000000000E+00   0.00000000000000E+00   5.43979615110831E-17   2.95198831634055E-21   5.44009134993995E-17
      8.44165450484738E-16  -5.00000000000000E-01  -5.00000000000000E-01   0.00000000000000E+00   0.00000000000000E+00
      0.00000000000000E+00   0.00000000000000E+00   0.00000000000000E+00  -3.20610485375738E-16
      2.95193202478451E-02
      0.00000000000000E+00   0.00000000000000E+00   0.00000000000000E+00   0.00000000000000E+00  -6.55050974588510E-17
     -7.51341298006095E-22  -6.55058488001490E-17   6.28075115029635E-16   2.95193202478451E-02   2.95193202478451E-02
      0.00000000000000E+00   0.00000000000000E+00   4.14185697103924E-17   3.35374896083862E-21   4.14219234593533E-17
      8.46461115284102E-16  -5.00000000000000E-01  -5.00000000000000E-01   0.00000000000000E+00   0.00000000000000E+00
      0.00000000000000E+00   0.00000000000000E+00   0.00000000000000E+00  -3.21827370392009E-16
      3.60162600274429E-02
      0.00000000000000E+00   0.00000000000000E+00   0.00000000000000E+00   0.00000000000000E+00  -1.07264294643601E-16
     -8.98061778728935E-22  -1.07265192705380E-16   6.27853953159068E-16   3.60162600274429E-02   3.60162600274429E-02
      0.00000000000000E+00   0.00000000000000E+00   4.99654306943222E-17   3.74155970655555E-21   4.99691722540287E-17
      8.49189551144245E-16  -5.00000000000000E-01  -5.00000000000000E-01   0.00000000000000E+00   0.00000000000000E+00
      0.00000000000000E+00   0.00000000000000E+00   0.00000000000000E+00  -3.23237060204799E-16
      4.37259618992322E-02
      0.00000000000000E+00   0.00000000000000E+00   0.00000000000000E+00   0.00000000000000E+00  -9.83297767821106E-17
     -1.06732200348794E-21  -9.83308441041141E-17   6.27604134184295E-16   4.37259618992322E-02   4.37259618992322E-02
      0.00000000000000E+00   0.00000000000000E+00   8.82574025541514E-17   4.09984662570112E-21   8.82615024007771E-17
      8.52430278884091E-16  -5.00000000000000E-01  -5.00000000000000E-01   0.00000000000000E+00   0.00000000000000E+00
      0.00000000000000E+00   0.00000000000000E+00   0.00000000000000E+00  -3.24871442199493E-16
      5.28748081204222E-02
      0.00000000000000E+00   0.00000000000000E+00   0.00000000000000E+00   0.00000000000000E+00  -7.29582453349415E-17
     -1.26392485915962E-21  -7.29595092598007E-17   6.27320843515328E-16   5.28748081204222E-02   5.28748081204222E-02
      0.00000000000000E+00   0.00000000000000E+00   8.17979247242437E-17   4.41287692767280E-21   8.18023376011714E-17
      8.56276073052755E-16  -5.00000000000000E-01  -5.00000000000000E-01   0.00000000000000E+00   0.00000000000000E+00
      0.00000000000000E+00   0.00000000000000E+00   0.00000000000000E+00  -3.26770744065537E-16
      6.36094543532852E-02
      0.00000000000000E+00   0.00000000000000E+00   0.00000000000000E+00   0.00000000000000E+00  -9.52302714280932E-17
     -1.49241849778495E-21  -9.52317638465910E-17   6.27000568025721E-16   6.36094543532852E-02   6.36094543532852E-02
      0.00000000000000E+00   0.00000000000000E+00   9.83012717715513E-17   4.66403237589286E-21   9.83059358039271E-17
      8.60783553997588E-16  -5.00000000000000E-01  -5.00000000000000E-01   0.00000000000000E+00   0.00000000000000E+00
      0.00000000000000E+00   0.00000000000000E+00   0.00000000000000E+00  -3.28962076496772E-16
      7.62047725998443E-02
      0.00000000000000E+00   0.00000000000000E+00   0.00000000000000E+00   0.00000000000000E+00  -1.42491745985913E-16
     -1.76245641229675E-21  -1.42493508442325E-16   6.26634033453796E-16   7.62047725998443E-02   7.62047725998443E-02
      0.00000000000000E+00   0.00000000000000E+00   1.39691310137776E-16   4.84402912449768E-21   1.39696154166901E-16
      8.66059803468048E-16  -5.00000000000000E-01  -5.00000000000000E-01   0.00000000000000E+00   0.00000000000000E+00
      0.00000000000000E+00   0.00000000000000E+00   0.00000000000000E+00  -3.31504425855599E-16
      9.09832793424738E-02
      0.00000000000000E+00   0.00000000000000E+00   0.00000000000000E+00   0.00000000000000E+00  -1.36239944446058E-16
     -2.08802475397344E-21  -1.36242032470812E-16   6.26208586643149E-16   9.09832793424738E-02   9.09832793424738E-02
      0.00000000000000E+00   0.00000000000000E+00   1.48890308555125E-16   4.94657535024294E-21   1.48895255130475E-16
      8.72227827840757E-16  -5.00000000000000E-01  -5.00000000000000E-01   0.00000000000000E+00   0.00000000000000E+00
      0.00000000000000E+00   0.00000000000000E+00   0.00000000000000E+00  -3.34472177839556E-16
      1.08323393920492E-01
      0.00000000000000E+00   0.00000000000000E+00   0.00000000000000E+00   0.00000000000000E+00  -1.91391617259907E-16
     -2.48839648208566E-21  -1.91394105656389E-16   6.25708483901226E-16   1.08323393920492E-01   1.08323393920492E-01
      0.00000000000000E+00   0.00000000000000E+00   2.10267819198771E-16   4.97161764765875E-21   2.10272790816419E-16
      8.79430059749979E-16  -5.00000000000000E-01  -5.00000000000000E-01   0.00000000000000E+00   0.00000000000000E+00
      0.00000000000000E+00   0.00000000000000E+00   0.00000000000000E+00  -3.37955111912848E-16
      1.28669128358701E-01
      0.00000000000000E+00   0.00000000000000E+00   0.00000000000000E+00   0.00000000000000E+00  -2.30006440719713E-16
     -2.98805486128012E-21  -2.30009428774574E-16   6.25116864802727E-16   1.28669128358701E-01   1.28669128358701E-01
      0.00000000000000E+00   0.00000000000000E+00   2.07295874318481E-16   4.93438844490927E-21   2.07300808706925E-16
      8.87833844445807E-16  -5.00000000000000E-01  -5.00000000000000E-01   0.00000000000000E+00   0.00000000000000E+00
      0.00000000000000E+00   0.00000000000000E+00   0.00000000000000E+00  -3.42053555578717E-16
      1.52541456766199E-01
      0.00000000000000E+00   0.00000000000000E+00   0.00000000000000E+00   0.00000000000000E+00  -2.53591219237469E-16
     -3.61425038041032E-21  -2.53594833487849E-16   6.24420213541431E-16   1.52541456766199E-01   1.52541456766199E-01
      0.00000000000000E+00   0.00000000000000E+00   2.58017136175500E-16   4.85876854686740E-21   2.58021994944047E-16
      8.97639482909531E-16  -5.00000000000000E-01  -5.00000000000000E-01   0.00000000000000E+00   0.00000000000000E+00
      0.00000000000000E+00   0.00000000000000E+00   0.00000000000000E+00  -3.46866471132449E-16
      1.80551655430996E-01
      0.00000000000000E+00   0.00000000000000E+00   0.00000000000000E+00   0.00000000000000E+00  -2.88111378548932E-16
     -4.39099265664361E-21  -2.88115769541589E-16   6.23614814075084E-16   1.80551655430996E-01   1.80551655430996E-01
      0.00000000000000E+00   0.00000000000000E+00   3.21898006896190E-16   4.76313790182109E-21   3.21902770034091E-16
      9.09090068910365E-16  -5.00000000000000E-01  -5.00000000000000E-01   0.00000000000000E+00   0.00000000000000E+00
      0.00000000000000E+00   0.00000000000000E+00   0.00000000000000E+00  -3.52474226268926E-16
      2.13416955197692E-01
      0.00000000000000E+00   0.00000000000000E+00   0.00000000000000E+00   0.00000000000000E+00  -3.87028202880320E-16
     -5.33063450797142E-21  -3.87033533514828E-16   6.22711662196123E-16   2.13416955197692E-01   2.13416955197692E-01
      0.00000000000000E+00   0.00000000000000E+00   3.56048701131182E-16   4.66356033042960E-21   3.56053364691512E-16
      9.22479533963160E-16  -5.00000000000000E-01  -5.00000000000000E-01   0.00000000000000E+00   0.00000000000000E+00
      0.00000000000000E+00   0.00000000000000E+00   0.00000000000000E+00  -3.58926861635601E-16
      2.51978906923948E-01
      0.00000000000000E+00   0.00000000000000E+00   0.00000000000000E+00   0.00000000000000E+00  -4.67503429299567E-16
     -6.42885500481307E-21  -4.67509858154571E-16   6.21733989791282E-16   2.51978906923948E-01   2.51978906923948E-01
      0.00000000000000E+00   0.00000000000000E+00   4.59149098470932E-16   4.59293747940004E-21   4.59153691408412E-16
      9.38153380334051E-16  -5.00000000000000E-01  -5.00000000000000E-01   0.00000000000000E+00   0.00000000000000E+00
      0.00000000000000E+00   0.00000000000000E+00   0.00000000000000E+00  -3.66255266227300E-16
      2.96710770926406E-01
      0.00000000000000E+00   0.00000000000000E+00   0.00000000000000E+00   0.00000000000000E+00  -5.43740201456858E-16
     -7.64977746356904E-21  -5.43747851234322E-16   6.20721063686982E-16   2.96710770926406E-01   2.96710770926406E-01
      0.00000000000000E+00   0.00000000000000E+00   5.78291124928985E-16   4.59668684818319E-21   5.78295721615833E-16
      9.56295851524896E-16  -5.00000000000000E-01  -5.00000000000000E-01   0.00000000000000E+00   0.00000000000000E+00
      0.00000000000000E+00   0.00000000000000E+00   0.00000000000000E+00  -3.74405627906815E-16
      3.49196158022622E-01
      0.00000000000000E+00   0.00000000000000E+00   0.00000000000000E+00   0.00000000000000E+00  -6.15017383150382E-16
     -8.93214124440215E-21  -6.15026315291627E-16   6.19709086980383E-16   3.49196158022622E-01   3.49196158022622E-01
      0.00000000000000E+00   0.00000000000000E+00   6.91115372146075E-16   4.63397133702985E-21   6.91120006117412E-16
      9.77531038425240E-16  -5.00000000000000E-01  -5.00000000000000E-01   0.00000000000000E+00   0.00000000000000E+00
      0.00000000000000E+00   0.00000000000000E+00   0.00000000000000E+00  -3.83471351042255E-16
      4.09379401892951E-01
      0.00000000000000E+00   0.00000000000000E+00   0.00000000000000E+00   0.00000000000000E+00  -6.84303562157215E-16
     -1.01009039100060E-20  -6.84313663061125E-16   6.18785628206352E-16   4.09379401892951E-01   4.09379401892951E-01
      0.00000000000000E+00   0.00000000000000E+00   7.15189907709451E-16   4.66381781200893E-21   7.15194571527263E-16
      1.00178594953836E-15  -5.00000000000000E-01  -5.00000000000000E-01   0.00000000000000E+00   0.00000000000000E+00
      0.00000000000000E+00   0.00000000000000E+00   0.00000000000000E+00  -3.93221363476332E-16
      4.75179748524510E-01
      0.00000000000000E+00   0.00000000000000E+00   0.00000000000000E+00   0.00000000000000E+00  -7.64718088709447E-16
     -1.10049682723040E-20  -7.64729093677720E-16   6.18002427239799E-16   4.75179748524510E-01   4.75179748524510E-01
      0.00000000000000E+00   0.00000000000000E+00   7.08780721185375E-16   4.67163890548878E-21   7.08785392824280E-16
      1.02807643060610E-15  -5.00000000000000E-01  -5.00000000000000E-01   0.00000000000000E+00   0.00000000000000E+00
      0.00000000000000E+00   0.00000000000000E+00   0.00000000000000E+00  -4.03307134487662E-16
      5.48876136751856E-01
      0.00000000000000E+00   0.00000000000000E+00   0.00000000000000E+00   0.00000000000000E+00  -8.06843376629561E-16
     -1.16240449789655E-20  -8.06855000674540E-16   6.17311852838737E-16   5.48876136751856E-01   5.48876136751856E-01
      0.00000000000000E+00   0.00000000000000E+00   8.66593533363663E-16   4.66991679117072E-21   8.66598203280454E-16
      1.05704817133662E-15  -5.00000000000000E-01  -5.00000000000000E-01   0.00000000000000E+00   0.00000000000000E+00
      0.00000000000000E+00   0.00000000000000E+00   0.00000000000000E+00  -4.14205503418488E-16
      6.34363947095578E-01
      0.00000000000000E+00   0.00000000000000E+00   0.00000000000000E+00   0.00000000000000E+00  -8.25256113978529E-16
     -1.20097293638712E-20  -8.25268123707893E-16   6.16613213189505E-16   6.34363947095578E-01   6.34363947095578E-01
      0.00000000000000E+00   0.00000000000000E+00   8.46759038012944E-16   4.66887746624600E-21   8.46763706890410E-16
      1.08971896391627E-15  -5.00000000000000E-01  -5.00000000000000E-01   0.00000000000000E+00   0.00000000000000E+00
      0.00000000000000E+00   0.00000000000000E+00   0.00000000000000E+00  -4.26781790490363E-16
      7.33529807094294E-01
      0.00000000000000E+00   0.00000000000000E+00   0.00000000000000E+00   0.00000000000000E+00  -8.21149215510378E-16
     -1.22466567969138E-20  -8.21161462167175E-16   6.15781566505741E-16   7.33529807094294E-01   7.33529807094294E-01
      0.00000000000000E+00   0.00000000000000E+00   8.52066762799077E-16   4.66991912791226E-21   8.52071432718205E-16
      1.12611647347466E-15  -5.00000000000000E-01  -5.00000000000000E-01   0.00000000000000E+00   0.00000000000000E+00
      0.00000000000000E+00   0.00000000000000E+00   0.00000000000000E+00  -4.41716370563188E-16
      8.48562204692806E-01
      0.00000000000000E+00   0.00000000000000E+00   0.00000000000000E+00   0.00000000000000E+00  -8.84916899827688E-16
     -1.24474840173835E-20  -8.84929347311706E-16   6.14654596337090E-16   8.48562204692806E-01   8.48562204692806E-01
      0.00000000000000E+00   0.00000000000000E+00   8.08418674663711E-16   4.67406796702136E-21   8.08423348731678E-16
      1.16676267417920E-15  -5.00000000000000E-01  -5.00000000000000E-01   0.00000000000000E+00   0.00000000000000E+00
      0.00000000000000E+00   0.00000000000000E+00   0.00000000000000E+00  -4.59620027941154E-16
      9.81999785907080E-01
      0.00000000000000E+00   0.00000000000000E+00   0.00000000000000E+00   0.00000000000000E+00  -9.07305612380654E-16
     -1.27799700704387E-20  -9.07318392350725E-16   6.13016828330468E-16   9.81999785907080E-01   9.81999785907080E-01
      0.00000000000000E+00   0.00000000000000E+00   9.18439301112423E-16   4.67950752193252E-21   9.18443980619945E-16
      1.21283218798320E-15  -5.00000000000000E-01  -5.00000000000000E-01   0.00000000000000E+00   0.00000000000000E+00
      0.00000000000000E+00   0.00000000000000E+00   0.00000000000000E+00  -4.80958312495795E-16
      1.00000000000000E+00
      0.00000000000000E+00   0.00000000000000E+00   0.00000000000000E+00   0.00000000000000E+00  -9.15634299113511E-16
     -1.28496153255826E-20  -9.15647148728837E-16   6.12761028360812E-16   1.00000000000000E+00   1.00000000000000E+00
      0.00000000000000E+00   0.00000000000000E+00   8.98080315480211E-16   4.68023021138811E-21   8.98084995710422E-16
      1.21899294858855E-15  -5.00000000000000E-01  -5.00000000000000E-01   0.00000000000000E+00   0.00000000000000E+00
      0.00000000000000E+00   0.00000000000000E+00   0.00000000000000E+00  -4.83883490894867E-16
      0.00000000000000E+00
      0.00000000000000E+00   0.00000000000000E+00   0.00000000000000E+00   0.00000000000000E+00  -9.35780339123218E-16
     -1.28496562449708E-20  -9.35793188779463E-16   6.12761009655194E-16   1.00000000000000E+00   1.00000000000000E+00
      0.00000000000000E+00   0.00000000000000E+00   9.27860261299889E-16   4.68023020950319E-21   9.27864941530099E-16
      1.21899293856288E-15  -5.00000000000000E-01  -5.00000000000000E-01   0.00000000000000E+00   0.00000000000000E+00
      0.00000000000000E+00   0.00000000000000E+00   0.00000000000000E+00  -4.83883544335832E-16
      1.00000000000000E-03
      0.00000000000000E+00   0.00000000000000E+00   0.00000000000000E+00   0.00000000000000E+00  -9.36187699519010E-16
     -1.28473025991740E-20  -9.36200546821609E-16   6.12727702277709E-16   1.00000000000000E+00   1.00000000000000E+00
      0.00000000000000E+00   0.00000000000000E+00   9.26940687836923E-16   4.68022888132114E-21   9.26945368065804E-16
      1.21867778876559E-15  -4.98000000000000E-01  -4.98000000000000E-01   0.00000000000000E+00   0.00000000000000E+00
      0.00000000000000E+00   0.00000000000000E+00   0.00000000000000E+00  -4.81701341852944E-16
      2.17333333333333E-03
      0.00000000000000E+00   0.00000000000000E+00   0.00000000000000E+00   0.00000000000000E+00  -9.43072303324959E-16
     -1.28445070616285E-20  -9.43085147832021E-16   6.12688503805052E-16   1.00000000000000E+00   1.00000000000000E+00
      0.00000000000000E+00   0.00000000000000E+00   9.56865579759277E-16   4.68022732310685E-21   9.56870259986600E-16
      1.21830791873663E-15  -4.95653333333333E-01  -4.95653333333333E-01   0.00000000000000E+00   0.00000000000000E+00
      0.00000000000000E+00   0.00000000000000E+00   0.00000000000000E+00  -4.79141352997978E-16
      3.58133333333333E-03
      0.00000000000000E+00   0.00000000000000E+00   0.00000000000000E+00   0.00000000000000E+00  -9.39909276310345E-16
     -1.28411428953708E-20  -9.39922117453240E-16   6.12641278173021E-16   1.00000000000000E+00   1.00000000000000E+00
      0.00000000000000E+00   0.00000000000000E+00   9.69734619044762E-16   4.68022545175115E-21   9.69739299270214E-16
      1.21786393343769E-15  -4.92837333333333E-01  -4.92837333333333E-01   0.00000000000000E+00   0.00000000000000E+00
      0.00000000000000E+00   0.00000000000000E+00   0.00000000000000E+00  -4.76070075855903E-16
      5.27093333333333E-03
      0.00000000000000E+00   0.00000000000000E+00   0.00000000000000E+00   0.00000000000000E+00  -9.62274454136863E-16
     -1.28370596904877E-20  -9.62287291196554E-16   6.12584349194350E-16   1.00000000000000E+00   1.00000000000000E+00
      0.00000000000000E+00   0.00000000000000E+00   9.80320462483409E-16   4.68022320550551E-21   9.80325142706614E-16
      1.21733095991534E-15  -4.89458133333333E-01  -4.89458133333333E-01   0.00000000000000E+00   0.00000000000000E+00
      0.00000000000000E+00   0.00000000000000E+00   0.00000000000000E+00  -4.72385523263178E-16
      7.29845333333333E-03
      0.00000000000000E+00   0.00000000000000E+00   0.00000000000000E+00   0.00000000000000E+00  -9.34021336696204E-16
     -1.28321029112589E-20  -9.34034168799116E-16   6.12515652712600E-16   1.00000000000000E+00   1.00000000000000E+00
      0.00000000000000E+00   0.00000000000000E+00   9.13283655822346E-16   4.68022050874578E-21   9.13288336042854E-16
      1.21669112113533E-15  -4.85403093333333E-01  -4.85403093333333E-01   0.00000000000000E+00   0.00000000000000E+00
      0.00000000000000E+00   0.00000000000000E+00   0.00000000000000E+00  -4.67965485936137E-16
      9.73147733333333E-03
      0.00000000000000E+00   0.00000000000000E+00   0.00000000000000E+00   0.00000000000000E+00  -9.64133169049954E-16
     -1.28261312103538E-20  -9.64145995181164E-16   6.12432630928281E-16   1.00000000000000E+00   1.00000000000000E+00
      0.00000000000000E+00   0.00000000000000E+00   9.86278629687173E-16   4.68021726822986E-21   9.86283309904441E-16
      1.21592292222238E-15  -4.80537045333333E-01  -4.80537045333333E-01   0.00000000000000E+00   0.00000000000000E+00
      0.00000000000000E+00   0.00000000000000E+00   0.00000000000000E+00  -4.62663575701645E-16
      1.26186658133333E-02
      0.00000000000000E+00   0.00000000000000E+00   0.00000000000000E+00   0.00000000000000E+00  -9.23269213709626E-16
     -1.28188634254965E-20  -9.23282032573052E-16   6.12333333216054E-16   1.00000000000000E+00   1.00000000000000E+00
      0.00000000000000E+00   0.00000000000000E+00   9.01121262598367E-16   4.68021342357833E-21   9.01125942811791E-16
      1.21501082517190E-15  -4.74762668373333E-01  -4.74762668373333E-01   0.00000000000000E+00   0.00000000000000E+00
      0.00000000000000E+00   0.00000000000000E+00   0.00000000000000E+00  -4.56374815517327E-16
      1.60447961429333E-02
      0.00000000000000E+00   0.00000000000000E+00   0.00000000000000E+00   0.00000000000000E+00  -9.60019943556676E-16
     -1.28100562649372E-20  -9.60032753612941E-16   6.12214341603617E-16   1.00000000000000E+00   1.00000000000000E+00
      0.00000000000000E+00   0.00000000000000E+00   9.63604689657724E-16   4.68020885923868E-21   9.63609369866583E-16
      1.21392777449325E-15  -4.67910407714133E-01  -4.67910407714133E-01   0.00000000000000E+00   0.00000000000000E+00
      0.00000000000000E+00   0.00000000000000E+00   0.00000000000000E+00  -4.48916273551717E-16
      2.01104708007253E-02
      0.00000000000000E+00   0.00000000000000E+00   0.00000000000000E+00   0.00000000000000E+00  -9.20544069511651E-16
     -1.27993381793302E-20  -9.20556868849830E-16   6.12071461724251E-16   1.00000000000000E+00   1.00000000000000E+00
      0.00000000000000E+00   0.00000000000000E+00   9.43728731229028E-16   4.68020344086584E-21   9.43733411432468E-16
      1.21264161893483E-15  -4.59779058398549E-01  -4.59779058398549E-01   0.00000000000000E+00   0.00000000000000E+00
      0.00000000000000E+00   0.00000000000000E+00   0.00000000000000E+00  -4.40071315061205E-16
      2.49350713946385E-02
      0.00000000000000E+00   0.00000000000000E+00   0.00000000000000E+00   0.00000000000000E+00  -9.29029570698524E-16
     -1.27862254491434E-20  -9.29042356923973E-16   6.11899471953498E-16   1.00000000000000E+00   1.00000000000000E+00
      0.00000000000000E+00   0.00000000000000E+00   9.07857278468820E-16   4.68019700957865E-21   9.07861958665830E-16
      1.21111412894291E-15  -4.50129857210723E-01  -4.50129857210723E-01   0.00000000000000E+00   0.00000000000000E+00
      0.00000000000000E+00   0.00000000000000E+00   0.00000000000000E+00  -4.29583619188837E-16
      3.06602640994155E-02
      0.00000000000000E+00   0.00000000000000E+00   0.00000000000000E+00   0.00000000000000E+00  -9.16396323637312E-16
     -1.27700788838150E-20  -9.16409093716196E-16   6.11691806133823E-16   1.00000000000000E+00   1.00000000000000E+00
      0.00000000000000E+00   0.00000000000000E+00   9.37372268813779E-16   4.68018937784764E-21   9.37376949003157E-16
      1.20929983764044E-15  -4.38679471801169E-01  -4.38679471801169E-01   0.00000000000000E+00   0.00000000000000E+00
      0.00000000000000E+00   0.00000000000000E+00   0.00000000000000E+00  -4.17150131659164E-16
      3.74541594424175E-02
      0.00000000000000E+00   0.00000000000000E+00   0.00000000000000E+00   0.00000000000000E+00  -9.72272627826409E-16
     -1.27500385316006E-20  -9.72285377864941E-16   6.11440105562495E-16   1.00000000000000E+00   1.00000000000000E+00
      0.00000000000000E+00   0.00000000000000E+00   9.51940825698870E-16   4.68018032497929E-21   9.51945505879194E-16
      1.20714465526467E-15  -4.25091681115165E-01  -4.25091681115165E-01   0.00000000000000E+00   0.00000000000000E+00
      0.00000000000000E+00   0.00000000000000E+00   0.00000000000000E+00  -4.02412901214341E-16
      4.55162485827798E-02
      0.00000000000000E+00   0.00000000000000E+00   0.00000000000000E+00   0.00000000000000E+00  -9.57181850171534E-16
     -1.27249250088246E-20  -9.57194575096543E-16   6.11133568417817E-16   1.00000000000000E+00   1.00000000000000E+00