DF-ISE text

Info {
  version   = 1.0
  type      = xyplot
  datasets  = [
    "time"
    "S OuterVoltage" "S InnerVoltage" "S QuasiFermiPotential" "S DisplacementCurrent" "S eCurrent"
    "S hCurrent" "S TotalCurrent" "S Charge" "D OuterVoltage" "D InnerVoltage"
    "D QuasiFermiPotential" "D DisplacementCurrent" "D eCurrent" "D hCurrent" "D TotalCurrent"
    "D Charge" "G OuterVoltage" "G InnerVoltage" "G QuasiFermiPotential" "G DisplacementCurrent"
    "G eCurrent" "G hCurrent" "G TotalCurrent" "G Charge" ]
  functions = [
    Time
    OuterVoltage InnerVoltage QuasiFermiPotential DisplacementCurrent eCurrent
    hCurrent TotalCurrent Charge OuterVoltage InnerVoltage
    QuasiFermiPotential DisplacementCurrent eCurrent hCurrent TotalCurrent
    Charge OuterVoltage InnerVoltage QuasiFermiPotential DisplacementCurrent
    eCurrent hCurrent TotalCurrent Charge ]
}

Data {
      0.00000000000000E+00
      0.00000000000000E+00   0.00000000000000E+00   0.00000000000000E+00   0.00000000000000E+00  -3.63418746073330E-18
      6.30917323603243E-36  -3.63418746073330E-18   9.24340249265787E-16   0.00000000000000E+00   0.00000000000000E+00
      0.00000000000000E+00   0.00000000000000E+00   2.76292369870800E-18   2.27960405992555E-35   2.76292369870800E-18
      1.14759903510934E-15  -5.00000000000000E-01  -5.00000000000000E-01   0.00000000000000E+00   0.00000000000000E+00
      0.00000000000000E+00   0.00000000000000E+00   0.00000000000000E+00  -3.14508039074217E-16
      0.00000000000000E+00
      0.00000000000000E+00   0.00000000000000E+00   0.00000000000000E+00   0.00000000000000E+00   3.58337221483556E-17
      3.57036499749919E-31   3.58337221483559E-17   9.24340242563924E-16   0.00000000000000E+00   0.00000000000000E+00
      0.00000000000000E+00   0.00000000000000E+00   1.62591724214883E-17   3.57028909513556E-31   1.62591724214886E-17
      1.14759902757994E-15  -5.00000000000000E-01  -5.00000000000000E-01   0.00000000000000E+00   0.00000000000000E+00
      0.00000000000000E+00   0.00000000000000E+00   0.00000000000000E+00  -3.14508039075428E-16
      1.00000000000000E-03
      0.00000000000000E+00   0.00000000000000E+00   0.00000000000000E+00   0.00000000000000E+00  -1.27733116597400E-17
     -3.95479124663006E-23  -1.27733512076525E-17   9.24228205073128E-16   1.00000000000000E-03   1.00000000000000E-03
      0.00000000000000E+00   0.00000000000000E+00   1.44090248606694E-12   1.66224957549016E-22   1.44090248623317E-12
      1.14820632372318E-15  -5.00000000000000E-01  -5.00000000000000E-01   0.00000000000000E+00   0.00000000000000E+00
      0.00000000000000E+00   0.00000000000000E+00   0.00000000000000E+00  -3.14819825175140E-16
      2.18666666666667E-03
      0.00000000000000E+00   0.00000000000000E+00   0.00000000000000E+00   0.00000000000000E+00  -2.43828350160009E-17
     -8.60934202221118E-23  -2.43829211094212E-17   9.24097355758841E-16   2.18666666666667E-03   2.18666666666667E-03
      0.00000000000000E+00   0.00000000000000E+00  -1.75913294229264E-17   3.57526207525616E-22  -1.75909718967189E-17
      1.14892872543034E-15  -5.00000000000000E-01  -5.00000000000000E-01   0.00000000000000E+00   0.00000000000000E+00
      0.00000000000000E+00   0.00000000000000E+00   0.00000000000000E+00  -3.15186166008530E-16
      3.59484444444444E-03
      0.00000000000000E+00   0.00000000000000E+00   0.00000000000000E+00   0.00000000000000E+00   5.29095614110575E-18
     -1.40791052382900E-22   5.29081535005337E-18   9.23944963810634E-16   3.59484444444444E-03   3.59484444444444E-03
      0.00000000000000E+00   0.00000000000000E+00   8.58363638553738E-18   5.76363043664049E-22   8.58421274858105E-18
      1.14978833978545E-15  -5.00000000000000E-01  -5.00000000000000E-01   0.00000000000000E+00   0.00000000000000E+00
      0.00000000000000E+00   0.00000000000000E+00   0.00000000000000E+00  -3.15615893101731E-16
      5.26588207407407E-03
      0.00000000000000E+00   0.00000000000000E+00   0.00000000000000E+00   0.00000000000000E+00  -3.44956463089317E-17
     -2.04953484278586E-22  -3.44958512624160E-17   9.23768058206414E-16   5.26588207407407E-03   5.26588207407407E-03
      0.00000000000000E+00   0.00000000000000E+00   2.32906387885835E-18   8.24887002040994E-22   2.32988876586040E-18
      1.15081159799569E-15  -5.00000000000000E-01  -5.00000000000000E-01   0.00000000000000E+00   0.00000000000000E+00
      0.00000000000000E+00   0.00000000000000E+00   0.00000000000000E+00  -3.16119020956011E-16
      7.24884672790123E-03
      0.00000000000000E+00   0.00000000000000E+00   0.00000000000000E+00   0.00000000000000E+00   2.84035709057038E-17
     -2.80061999132147E-22   2.84032908437047E-17   9.23563460586605E-16   7.24884672790123E-03   7.24884672790123E-03
      0.00000000000000E+00   0.00000000000000E+00   6.09967251557369E-18   1.10466118285464E-21   6.10077717675655E-18
      1.15203010432469E-15  -5.00000000000000E-01  -5.00000000000000E-01   0.00000000000000E+00   0.00000000000000E+00
      0.00000000000000E+00   0.00000000000000E+00   0.00000000000000E+00  -3.16706834383802E-16
      9.60196478377613E-03
      0.00000000000000E+00   0.00000000000000E+00   0.00000000000000E+00   0.00000000000000E+00  -5.38095134593313E-17
     -3.67775112338854E-22  -5.38098812344437E-17   9.23327835824875E-16   9.60196478377613E-03   9.60196478377613E-03
      0.00000000000000E+00   0.00000000000000E+00   4.43434704696967E-17   1.41629207880191E-21   4.43448867617755E-17
      1.15348163963252E-15  -5.00000000000000E-01  -5.00000000000000E-01   0.00000000000000E+00   0.00000000000000E+00
      0.00000000000000E+00   0.00000000000000E+00   0.00000000000000E+00  -3.17391972694925E-16
      1.23943315434143E-02
      0.00000000000000E+00   0.00000000000000E+00   0.00000000000000E+00   0.00000000000000E+00  -5.30488405397400E-17
     -4.69934379920931E-22  -5.30493104741200E-17   9.23057762653905E-16   1.23943315434143E-02   1.23943315434143E-02
      0.00000000000000E+00   0.00000000000000E+00   4.27908279539661E-17   1.75897592058815E-21   4.27925869298867E-17
      1.15521133748659E-15  -5.00000000000000E-01  -5.00000000000000E-01   0.00000000000000E+00   0.00000000000000E+00
      0.00000000000000E+00   0.00000000000000E+00   0.00000000000000E+00  -3.18188512137319E-16
      1.57079400981850E-02
      0.00000000000000E+00   0.00000000000000E+00   0.00000000000000E+00   0.00000000000000E+00  -2.45579010546299E-17
     -5.88574812132021E-22  -2.45584896294420E-17   9.22749803818993E-16   1.57079400981850E-02   1.57079400981850E-02
      0.00000000000000E+00   0.00000000000000E+00   6.34183617362390E-17   2.12997849298342E-21   6.34204917147320E-17
      1.15727302877314E-15  -5.00000000000000E-01  -5.00000000000000E-01   0.00000000000000E+00   0.00000000000000E+00
      0.00000000000000E+00   0.00000000000000E+00   0.00000000000000E+00  -3.19112088297496E-16
      1.96400889165129E-02
      0.00000000000000E+00   0.00000000000000E+00   0.00000000000000E+00   0.00000000000000E+00  -3.34457903923549E-17
     -7.25943441320906E-22  -3.34465163357963E-17   9.22400566864219E-16   1.96400889165129E-02   1.96400889165129E-02
      0.00000000000000E+00   0.00000000000000E+00   5.38272128956013E-17   2.52410891459284E-21   5.38297370045159E-17
      1.15973076039044E-15  -5.00000000000000E-01  -5.00000000000000E-01   0.00000000000000E+00   0.00000000000000E+00
      0.00000000000000E+00   0.00000000000000E+00   0.00000000000000E+00  -3.20180081532503E-16
      2.43062388475953E-02
      0.00000000000000E+00   0.00000000000000E+00   0.00000000000000E+00   0.00000000000000E+00  -3.92435307505579E-17
     -8.84549704340663E-22  -3.92444153002622E-17   9.22006698674071E-16   2.43062388475953E-02   2.43062388475953E-02
      0.00000000000000E+00   0.00000000000000E+00   7.82153665556599E-17   2.93329068131135E-21   7.82182998463412E-17
      1.16266044024841E-15  -5.00000000000000E-01  -5.00000000000000E-01   0.00000000000000E+00   0.00000000000000E+00
      0.00000000000000E+00   0.00000000000000E+00   0.00000000000000E+00  -3.21411972138428E-16
      2.98434034324797E-02
      0.00000000000000E+00   0.00000000000000E+00   0.00000000000000E+00   0.00000000000000E+00  -8.03114822522252E-17
     -1.06728129685523E-21  -8.03125495335221E-17   9.21564745977918E-16   2.98434034324797E-02   2.98434034324797E-02
      0.00000000000000E+00   0.00000000000000E+00   9.09970670406122E-17   3.34639721474687E-21   9.10004134378269E-17
      1.16615154361570E-15  -5.00000000000000E-01  -5.00000000000000E-01   0.00000000000000E+00   0.00000000000000E+00
      0.00000000000000E+00   0.00000000000000E+00   0.00000000000000E+00  -3.22829992046369E-16
      3.64141720732093E-02
      0.00000000000000E+00   0.00000000000000E+00   0.00000000000000E+00   0.00000000000000E+00  -9.21070367316408E-17
     -1.27762952305581E-21  -9.21083143611639E-17   9.21070813628673E-16   3.64141720732093E-02   3.64141720732093E-02
      0.00000000000000E+00   0.00000000000000E+00   1.12193100968805E-16   3.74956926091474E-21   1.12196850538066E-16
      1.17030880545060E-15  -5.00000000000000E-01  -5.00000000000000E-01   0.00000000000000E+00   0.00000000000000E+00
      0.00000000000000E+00   0.00000000000000E+00   0.00000000000000E+00  -3.24460201987020E-16
      4.42114841935417E-02
      0.00000000000000E+00   0.00000000000000E+00   0.00000000000000E+00   0.00000000000000E+00  -1.26141024206713E-16
     -1.52012986585052E-21  -1.26142544336579E-16   9.20519851050426E-16   4.42114841935417E-02   4.42114841935417E-02
      0.00000000000000E+00   0.00000000000000E+00   7.27139677804872E-17   4.12721287172007E-21   7.27180949933589E-17
      1.17525371105833E-15  -5.00000000000000E-01  -5.00000000000000E-01   0.00000000000000E+00   0.00000000000000E+00
      0.00000000000000E+00   0.00000000000000E+00   0.00000000000000E+00  -3.26334297524741E-16
      5.34642945763361E-02
      0.00000000000000E+00   0.00000000000000E+00   0.00000000000000E+00   0.00000000000000E+00  -1.14239216870336E-16
     -1.80107569368221E-21  -1.14241017946030E-16   9.19904586217386E-16   5.34642945763361E-02   5.34642945763361E-02
      0.00000000000000E+00   0.00000000000000E+00   1.44679485515075E-16   4.46378007707930E-21   1.44683949295153E-16
      1.18112578002567E-15  -5.00000000000000E-01  -5.00000000000000E-01   0.00000000000000E+00   0.00000000000000E+00
      0.00000000000000E+00   0.00000000000000E+00   0.00000000000000E+00  -3.28492125649708E-16
      6.44442962305855E-02
      0.00000000000000E+00   0.00000000000000E+00   0.00000000000000E+00   0.00000000000000E+00  -1.44253570691027E-16
     -2.12958440926396E-21  -1.44255700275436E-16   9.19214155972985E-16   6.44442962305855E-02   6.44442962305855E-02
      0.00000000000000E+00   0.00000000000000E+00   1.46499289779843E-16   4.74613448054648E-21   1.46504035914324E-16
      1.18808367514604E-15  -5.00000000000000E-01  -5.00000000000000E-01   0.00000000000000E+00   0.00000000000000E+00
      0.00000000000000E+00   0.00000000000000E+00   0.00000000000000E+00  -3.30984846038492E-16
      7.74738981936281E-02
      0.00000000000000E+00   0.00000000000000E+00   0.00000000000000E+00   0.00000000000000E+00  -1.82887458430880E-16
     -2.51899762967280E-21  -1.82889977428509E-16   9.18432779606499E-16   7.74738981936281E-02   7.74738981936281E-02
      0.00000000000000E+00   0.00000000000000E+00   1.84370589882417E-16   4.96589180413671E-21   1.84375555774221E-16
      1.19630651133894E-15  -5.00000000000000E-01  -5.00000000000000E-01   0.00000000000000E+00   0.00000000000000E+00
      0.00000000000000E+00   0.00000000000000E+00   0.00000000000000E+00  -3.33878168599944E-16
      9.27619644969315E-02
      0.00000000000000E+00   0.00000000000000E+00   0.00000000000000E+00   0.00000000000000E+00  -2.01013825362775E-16
     -2.98300198196468E-21  -2.01016808364757E-16   9.17549233895408E-16   9.27619644969315E-02   9.27619644969315E-02
      0.00000000000000E+00   0.00000000000000E+00   2.37174286758105E-16   5.11946204845620E-21   2.37179406220153E-16
      1.20588797519746E-15  -5.00000000000000E-01  -5.00000000000000E-01   0.00000000000000E+00   0.00000000000000E+00
      0.00000000000000E+00   0.00000000000000E+00   0.00000000000000E+00  -3.37216545062212E-16
      1.10699962292807E-01
      0.00000000000000E+00   0.00000000000000E+00   0.00000000000000E+00   0.00000000000000E+00  -2.75735533319261E-16
     -3.54452162362748E-21  -2.75739077840885E-16   9.16541686998871E-16   1.10699962292807E-01   1.10699962292807E-01
      0.00000000000000E+00   0.00000000000000E+00   2.70259198194553E-16   5.21187627434797E-21   2.70264410070828E-16
      1.21702363117433E-15  -5.00000000000000E-01  -5.00000000000000E-01   0.00000000000000E+00   0.00000000000000E+00
      0.00000000000000E+00   0.00000000000000E+00   0.00000000000000E+00  -3.41084581718100E-16
      1.31747213039968E-01
      0.00000000000000E+00   0.00000000000000E+00   0.00000000000000E+00   0.00000000000000E+00  -2.76207320266231E-16
     -4.23072039577015E-21  -2.76211550986626E-16   9.15391065855087E-16   1.31747213039968E-01   1.31747213039968E-01
      0.00000000000000E+00   0.00000000000000E+00   3.02115323644389E-16   5.25087643055066E-21   3.02120574520820E-16
      1.22994128349743E-15  -5.00000000000000E-01  -5.00000000000000E-01   0.00000000000000E+00   0.00000000000000E+00
      0.00000000000000E+00   0.00000000000000E+00   0.00000000000000E+00  -3.45570740304164E-16
      1.56442653916637E-01
      0.00000000000000E+00   0.00000000000000E+00   0.00000000000000E+00   0.00000000000000E+00  -3.54864992859225E-16
     -5.06810504281208E-21  -3.54870060964268E-16   9.14090764327154E-16   1.56442653916637E-01   1.56442653916637E-01
      0.00000000000000E+00   0.00000000000000E+00   3.55340862413009E-16   5.24785239830952E-21   3.55346110265408E-16
      1.24491743658980E-15  -5.00000000000000E-01  -5.00000000000000E-01   0.00000000000000E+00   0.00000000000000E+00
      0.00000000000000E+00   0.00000000000000E+00   0.00000000000000E+00  -3.50752806350114E-16
      1.85418637878596E-01
      0.00000000000000E+00   0.00000000000000E+00   0.00000000000000E+00   0.00000000000000E+00  -4.20486514817928E-16
     -6.07121329365379E-21  -4.20492586031222E-16   9.12660684240510E-16   1.85418637878596E-01   1.85418637878596E-01
      0.00000000000000E+00   0.00000000000000E+00   4.34976437663848E-16   5.21848588837780E-21   4.34981656149737E-16
      1.26230156183173E-15  -5.00000000000000E-01  -5.00000000000000E-01   0.00000000000000E+00   0.00000000000000E+00
      0.00000000000000E+00   0.00000000000000E+00   0.00000000000000E+00  -3.56676931758856E-16
      2.19417125727293E-01
      0.00000000000000E+00   0.00000000000000E+00   0.00000000000000E+00   0.00000000000000E+00  -5.30625869905102E-16
     -7.22371110161499E-21  -5.30633093616204E-16   9.11161278973437E-16   2.19417125727293E-01   2.19417125727293E-01
      0.00000000000000E+00   0.00000000000000E+00   4.73717958133615E-16   5.17494397450630E-21   4.73723133077590E-16
      1.28254364359401E-15  -5.00000000000000E-01  -5.00000000000000E-01   0.00000000000000E+00   0.00000000000000E+00
      0.00000000000000E+00   0.00000000000000E+00   0.00000000000000E+00  -3.63338085391308E-16
      2.59308684803099E-01
      0.00000000000000E+00   0.00000000000000E+00   0.00000000000000E+00   0.00000000000000E+00  -5.72513325035168E-16
     -8.45895837114896E-21  -5.72521783993539E-16   9.09696022550532E-16   2.59308684803099E-01   2.59308684803099E-01
      0.00000000000000E+00   0.00000000000000E+00   5.89267895044395E-16   5.12283560327542E-21   5.89273017879998E-16
      1.30621176795221E-15  -5.00000000000000E-01  -5.00000000000000E-01   0.00000000000000E+00   0.00000000000000E+00
      0.00000000000000E+00   0.00000000000000E+00   0.00000000000000E+00  -3.70681888506479E-16
      3.06114780785377E-01
      0.00000000000000E+00   0.00000000000000E+00   0.00000000000000E+00   0.00000000000000E+00  -6.54265757803223E-16
     -9.65861667118265E-21  -6.54275416419894E-16   9.08390418653136E-16   3.06114780785377E-01   3.06114780785377E-01
      0.00000000000000E+00   0.00000000000000E+00   6.55144889401980E-16   5.06522316241524E-21   6.55149954625143E-16
      1.33398544491095E-15  -5.00000000000000E-01  -5.00000000000000E-01   0.00000000000000E+00   0.00000000000000E+00
      0.00000000000000E+00   0.00000000000000E+00   0.00000000000000E+00  -3.78648075065682E-16
      3.61033933404584E-01
      0.00000000000000E+00   0.00000000000000E+00   0.00000000000000E+00   0.00000000000000E+00  -7.48234318821005E-16
     -1.06860427747893E-20  -7.48245004863779E-16   9.07350689704569E-16   3.61033933404584E-01   3.61033933404584E-01
      0.00000000000000E+00   0.00000000000000E+00   7.93906106448638E-16   5.01099942473971E-21   7.93911117448062E-16
      1.36662482691984E-15  -5.00000000000000E-01  -5.00000000000000E-01   0.00000000000000E+00   0.00000000000000E+00
      0.00000000000000E+00   0.00000000000000E+00   0.00000000000000E+00  -3.87250606392263E-16
      4.24007895074607E-01
      0.00000000000000E+00   0.00000000000000E+00   0.00000000000000E+00   0.00000000000000E+00  -7.70866049449136E-16
     -1.14336192787849E-20  -7.70877483068415E-16   9.06634144235605E-16   4.24007895074607E-01   4.24007895074607E-01
      0.00000000000000E+00   0.00000000000000E+00   7.26092762930939E-16   4.99735418780034E-21   7.26097760285127E-16
      1.40406156344077E-15  -5.00000000000000E-01  -5.00000000000000E-01   0.00000000000000E+00   0.00000000000000E+00
      0.00000000000000E+00   0.00000000000000E+00   0.00000000000000E+00  -3.96453451889461E-16
      4.93699079322766E-01
      0.00000000000000E+00   0.00000000000000E+00   0.00000000000000E+00   0.00000000000000E+00  -7.99251316798179E-16
     -1.19099640832775E-20  -7.99263226762263E-16   9.06193523558888E-16   4.93699079322766E-01   4.93699079322766E-01
      0.00000000000000E+00   0.00000000000000E+00   8.05169291226180E-16   5.01957221012028E-21   8.05174310798390E-16
      1.44535784517848E-15  -5.00000000000000E-01  -5.00000000000000E-01   0.00000000000000E+00   0.00000000000000E+00
      0.00000000000000E+00   0.00000000000000E+00   0.00000000000000E+00  -4.06252416207381E-16
      5.71753205680705E-01
      0.00000000000000E+00   0.00000000000000E+00   0.00000000000000E+00   0.00000000000000E+00  -8.23133492146568E-16
     -1.22389407599008E-20  -8.23145731087328E-16   9.05895956861171E-16   5.71753205680705E-01   5.71753205680705E-01
      0.00000000000000E+00   0.00000000000000E+00   8.59517367808526E-16   5.04266864039315E-21   8.59522410477166E-16
      1.49125383423766E-15  -5.00000000000000E-01  -5.00000000000000E-01   0.00000000000000E+00   0.00000000000000E+00
      0.00000000000000E+00   0.00000000000000E+00   0.00000000000000E+00  -4.17196411195305E-16
      6.62295992255913E-01
      0.00000000000000E+00   0.00000000000000E+00   0.00000000000000E+00   0.00000000000000E+00  -8.55893241089762E-16
     -1.26283583657164E-20  -8.55905869448128E-16   9.05550612492415E-16   6.62295992255913E-01   6.62295992255913E-01
      0.00000000000000E+00   0.00000000000000E+00   9.01988856995565E-16   5.06443879496315E-21   9.01993921434360E-16
      1.54377450771681E-15  -5.00000000000000E-01  -5.00000000000000E-01   0.00000000000000E+00   0.00000000000000E+00
      0.00000000000000E+00   0.00000000000000E+00   0.00000000000000E+00  -4.30318329122126E-16
      7.67325624683155E-01
      0.00000000000000E+00   0.00000000000000E+00   0.00000000000000E+00   0.00000000000000E+00  -9.36451428012113E-16
     -1.36535272206207E-20  -9.36465081539334E-16   9.04675714365751E-16   7.67325624683155E-01   7.67325624683155E-01
      0.00000000000000E+00   0.00000000000000E+00   1.00442939540567E-15   5.08532902577235E-21   1.00443448073470E-15
      1.60326731917788E-15  -5.00000000000000E-01  -5.00000000000000E-01   0.00000000000000E+00   0.00000000000000E+00
      0.00000000000000E+00   0.00000000000000E+00   0.00000000000000E+00  -4.46854652432491E-16
      8.89159998298756E-01
      0.00000000000000E+00   0.00000000000000E+00   0.00000000000000E+00   0.00000000000000E+00  -1.09436648963464E-15
     -1.61097790209403E-20  -1.09438259941366E-15   9.02754459069811E-16   8.89159998298756E-01   8.89159998298756E-01
      0.00000000000000E+00   0.00000000000000E+00   1.11942621556907E-15   5.10553089375026E-21   1.11943132109996E-15
      1.67003191796994E-15  -5.00000000000000E-01  -5.00000000000000E-01   0.00000000000000E+00   0.00000000000000E+00
      0.00000000000000E+00   0.00000000000000E+00   0.00000000000000E+00  -4.68071200732822E-16
      1.00000000000000E+00
      0.00000000000000E+00   0.00000000000000E+00   0.00000000000000E+00   0.00000000000000E+00  -1.15177281408986E-15
     -1.77948345560406E-20  -1.15179060892442E-15   9.01556607874322E-16   1.00000000000000E+00   1.00000000000000E+00
      0.00000000000000E+00   0.00000000000000E+00   1.16419668971065E-15   5.12131673925745E-21   1.16420181102739E-15
      1.72977760076871E-15  -5.00000000000000E-01  -5.00000000000000E-01   0.00000000000000E+00   0.00000000000000E+00
      0.00000000000000E+00   0.00000000000000E+00   0.00000000000000E+00  -4.86942154455172E-16
      0.00000000000000E+00
      0.00000000000000E+00   0.00000000000000E+00   0.00000000000000E+00   0.00000000000000E+00  -1.18183183189996E-15
     -1.77948259002468E-20  -1.18184962672586E-15   9.01556613801044E-16   1.00000000000000E+00   1.00000000000000E+00
      0.00000000000000E+00   0.00000000000000E+00   1.22113074221767E-15   5.12131674055192E-21   1.22113586353441E-15
      1.72977760450108E-15  -5.00000000000000E-01  -5.00000000000000E-01   0.00000000000000E+00   0.00000000000000E+00
      0.00000000000000E+00   0.00000000000000E+00   0.00000000000000E+00  -4.86942145555258E-16
      1.00000000000000E-03
      0.00000000000000E+00   0.00000000000000E+00   0.00000000000000E+00   0.00000000000000E+00  -1.19750603459345E-15
     -1.77906762410144E-20  -1.19752382526969E-15   9.01527307056721E-16   1.00000000000000E+00   1.00000000000000E+00
      0.00000000000000E+00   0.00000000000000E+00   1.18250942325552E-15   5.12131721660898E-21   1.18251454457274E-15
      1.72946825824836E-15  -4.98000000000000E-01  -4.98000000000000E-01   0.00000000000000E+00   0.00000000000000E+00
      0.00000000000000E+00   0.00000000000000E+00   0.00000000000000E+00  -4.84754726573906E-16
      2.17333333333333E-03
      0.00000000000000E+00   0.00000000000000E+00   0.00000000000000E+00   0.00000000000000E+00  -1.17125110348508E-15
     -1.77857644982271E-20  -1.17126888924958E-15   9.01492830281997E-16   1.00000000000000E+00   1.00000000000000E+00
      0.00000000000000E+00   0.00000000000000E+00   1.22689018114960E-15   5.12131778147555E-21   1.22689530246738E-15
      1.72910517304227E-15  -4.95653333333333E-01  -4.95653333333333E-01   0.00000000000000E+00   0.00000000000000E+00
      0.00000000000000E+00   0.00000000000000E+00   0.00000000000000E+00  -4.82188654171161E-16
      3.58133333333333E-03
      0.00000000000000E+00   0.00000000000000E+00   0.00000000000000E+00   0.00000000000000E+00  -1.17814458248138E-15
     -1.77798414917146E-20  -1.17816236232287E-15   9.01451306032862E-16   1.00000000000000E+00   1.00000000000000E+00
      0.00000000000000E+00   0.00000000000000E+00   1.18858368099793E-15   5.12131846348791E-21   1.18858880231639E-15
      1.72866929140216E-15  -4.92837333333333E-01  -4.92837333333333E-01   0.00000000000000E+00   0.00000000000000E+00
      0.00000000000000E+00   0.00000000000000E+00   0.00000000000000E+00  -4.79110109333585E-16
      5.27093333333333E-03
      0.00000000000000E+00   0.00000000000000E+00   0.00000000000000E+00   0.00000000000000E+00  -1.17435019561639E-15
     -1.77726680484869E-20  -1.17436796828444E-15   9.01401271698037E-16   1.00000000000000E+00   1.00000000000000E+00
      0.00000000000000E+00   0.00000000000000E+00   1.24187020286145E-15   5.12131929154057E-21   1.24187532418074E-15
      1.72814599212082E-15  -4.89458133333333E-01  -4.89458133333333E-01   0.00000000000000E+00   0.00000000000000E+00
      0.00000000000000E+00   0.00000000000000E+00   0.00000000000000E+00  -4.75416895448386E-16
      7.29845333333333E-03
      0.00000000000000E+00   0.00000000000000E+00   0.00000000000000E+00   0.00000000000000E+00  -1.16759373942531E-15
     -1.77639713980420E-20  -1.16761150339671E-15   9.01340925816587E-16   1.00000000000000E+00   1.00000000000000E+00
      0.00000000000000E+00   0.00000000000000E+00   1.15871801688509E-15   5.12132029815914E-21   1.15872313820539E-15
      1.72751769369256E-15  -4.85403093333333E-01  -4.85403093333333E-01   0.00000000000000E+00   0.00000000000000E+00
      0.00000000000000E+00   0.00000000000000E+00   0.00000000000000E+00  -4.70986537227167E-16
      9.73147733333333E-03
      0.00000000000000E+00   0.00000000000000E+00   0.00000000000000E+00   0.00000000000000E+00  -1.17442265768737E-15
     -1.77534806378301E-20  -1.17444041116800E-15   9.01268013682972E-16   1.00000000000000E+00   1.00000000000000E+00
      0.00000000000000E+00   0.00000000000000E+00   1.19175860780018E-15   5.12132151389853E-21   1.19176372912170E-15
      1.72676323358775E-15  -4.80537045333333E-01  -4.80537045333333E-01   0.00000000000000E+00   0.00000000000000E+00
      0.00000000000000E+00   0.00000000000000E+00   0.00000000000000E+00  -4.65672332293138E-16
      1.26186658133333E-02
      0.00000000000000E+00   0.00000000000000E+00   0.00000000000000E+00   0.00000000000000E+00  -1.15132718262342E-15
     -1.77407803353728E-20  -1.15134492340375E-15   9.01180892040328E-16   1.00000000000000E+00   1.00000000000000E+00
      0.00000000000000E+00   0.00000000000000E+00   1.20699588058199E-15   5.12132299368292E-21   1.20700100190498E-15
      1.72586733383188E-15  -4.74762668373333E-01  -4.74762668373333E-01   0.00000000000000E+00   0.00000000000000E+00
      0.00000000000000E+00   0.00000000000000E+00   0.00000000000000E+00  -4.59369104184644E-16
      1.60447961429333E-02
      0.00000000000000E+00   0.00000000000000E+00   0.00000000000000E+00   0.00000000000000E+00  -1.16362196222928E-15
     -1.77254393567055E-20  -1.16363968766864E-15   9.01076580990308E-16   1.00000000000000E+00   1.00000000000000E+00
      0.00000000000000E+00   0.00000000000000E+00   1.16888028317932E-15   5.12132478947888E-21   1.16888540450411E-15
      1.72480335272174E-15  -4.67910407714133E-01  -4.67910407714133E-01   0.00000000000000E+00   0.00000000000000E+00
      0.00000000000000E+00   0.00000000000000E+00   0.00000000000000E+00  -4.51893523202115E-16
      2.01104708007253E-02
      0.00000000000000E+00   0.00000000000000E+00   0.00000000000000E+00   0.00000000000000E+00  -1.20060800347143E-15
     -1.77068422931405E-20  -1.20062571031372E-15   9.00951458191107E-16   1.00000000000000E+00   1.00000000000000E+00
      0.00000000000000E+00   0.00000000000000E+00   1.22823312420074E-15   5.12132697851309E-21   1.22823824552772E-15
      1.72353964234689E-15  -4.59779058398549E-01  -4.59779058398549E-01   0.00000000000000E+00   0.00000000000000E+00
      0.00000000000000E+00   0.00000000000000E+00   0.00000000000000E+00  -4.43028474748141E-16
      2.49350713946385E-02
      0.00000000000000E+00   0.00000000000000E+00   0.00000000000000E+00   0.00000000000000E+00  -1.18146824319806E-15
     -1.76841990945221E-20  -1.18148592739716E-15   9.00801030733804E-16   1.00000000000000E+00   1.00000000000000E+00
      0.00000000000000E+00   0.00000000000000E+00   1.18961569466628E-15   5.12132966145026E-21   1.18962081599594E-15
      1.72203857343960E-15  -4.50129857210723E-01  -4.50129857210723E-01   0.00000000000000E+00   0.00000000000000E+00
      0.00000000000000E+00   0.00000000000000E+00   0.00000000000000E+00  -4.32517039535694E-16
      3.06602640994155E-02
      0.00000000000000E+00   0.00000000000000E+00   0.00000000000000E+00   0.00000000000000E+00  -1.20375869919670E-15
     -1.76564811352528E-20  -1.20377635567784E-15   9.00619673392967E-16   1.00000000000000E+00   1.00000000000000E+00
      0.00000000000000E+00   0.00000000000000E+00   1.17495301003985E-15   5.12133297157784E-21   1.17495813137282E-15
      1.72025540427784E-15  -4.38679471801169E-01  -4.38679471801169E-01   0.00000000000000E+00   0.00000000000000E+00
      0.00000000000000E+00   0.00000000000000E+00   0.00000000000000E+00  -4.20055395900787E-16
      3.74541594424175E-02
      0.00000000000000E+00   0.00000000000000E+00   0.00000000000000E+00   0.00000000000000E+00  -1.16592992302538E-15
     -1.76223297835903E-20  -1.16594754535516E-15   9.00400259621501E-16   1.00000000000000E+00   1.00000000000000E+00
      0.00000000000000E+00   0.00000000000000E+00   1.15580400907170E-15   5.12133708815409E-21   1.15580913040878E-15
      1.71813693476957E-15  -4.25091681115165E-01  -4.25091681115165E-01   0.00000000000000E+00   0.00000000000000E+00
      0.00000000000000E+00   0.00000000000000E+00   0.00000000000000E+00  -4.05284581052226E-16
      4.55162485827798E-02
      0.00000000000000E+00   0.00000000000000E+00   0.00000000000000E+00   0.00000000000000E+00  -1.18117961383834E-15
     -1.75799025555024E-20  -1.18119719374090E-15   9.00133640672482E-16   1.00000000000000E+00   1.00000000000000E+00
      0.00000000000000E+00   0.00000000000000E+00   1.17351620836199E-15   5.12134225929193E-21   1.17352132970425E-15
      1.71561991032731E-15  -4.08967502834440E-01  -4.08967502834440E-01   0.00000000000000E+00   0.00000000000000E+00
      0.00000000000000E+00   0.00000000000000E+00   0.00000000000000E+00  -3.87781001391168E-16
      5.50832610293431E-02
      0.00000000000000E+00   0.00000000000000E+00   0.00000000000000E+00   0.00000000000000E+00  -1.18757823774800E-15
     -1.75266670058457E-20  -1.18759576441500E-15   8.99807851037401E-16   1.00000000000000E+00   1.00000000000000E+00