DF-ISE text

Info {
  version   = 1.0
  type      = xyplot
  datasets  = [
    "time"
    "S OuterVoltage" "S InnerVoltage" "S QuasiFermiPotential" "S DisplacementCurrent" "S eCurrent"
    "S hCurrent" "S TotalCurrent" "S Charge" "D OuterVoltage" "D InnerVoltage"
    "D QuasiFermiPotential" "D DisplacementCurrent" "D eCurrent" "D hCurrent" "D TotalCurrent"
    "D Charge" "G OuterVoltage" "G InnerVoltage" "G QuasiFermiPotential" "G DisplacementCurrent"
    "G eCurrent" "G hCurrent" "G TotalCurrent" "G Charge" ]
  functions = [
    Time
    OuterVoltage InnerVoltage QuasiFermiPotential DisplacementCurrent eCurrent
    hCurrent TotalCurrent Charge OuterVoltage InnerVoltage
    QuasiFermiPotential DisplacementCurrent eCurrent hCurrent TotalCurrent
    Charge OuterVoltage InnerVoltage QuasiFermiPotential DisplacementCurrent
    eCurrent hCurrent TotalCurrent Charge ]
}

Data {
      0.00000000000000E+00
      0.00000000000000E+00   0.00000000000000E+00   0.00000000000000E+00   0.00000000000000E+00   3.65071500151291E-19
      6.66733181999902E-35   3.65071500151291E-19   4.14835674004226E-16   0.00000000000000E+00   0.00000000000000E+00
      0.00000000000000E+00   0.00000000000000E+00   2.38257189573305E-19   6.19695505032124E-35   2.38257189573305E-19
      6.18891105723578E-16  -5.00000000000000E-01  -5.00000000000000E-01   0.00000000000000E+00   0.00000000000000E+00
      0.00000000000000E+00   0.00000000000000E+00   0.00000000000000E+00  -4.93414162032844E-16
      0.00000000000000E+00
      0.00000000000000E+00   0.00000000000000E+00   0.00000000000000E+00   0.00000000000000E+00   7.51219393281084E-18
      4.98992894364567E-33   7.51219393281084E-18   4.14835679546849E-16   0.00000000000000E+00   0.00000000000000E+00
      0.00000000000000E+00   0.00000000000000E+00  -5.73817382063207E-18   4.75803820896554E-33  -5.73817382063207E-18
      6.18891111408151E-16  -5.00000000000000E-01  -5.00000000000000E-01   0.00000000000000E+00   0.00000000000000E+00
      0.00000000000000E+00   0.00000000000000E+00   0.00000000000000E+00  -4.93414162032622E-16
      1.00000000000000E-03
      0.00000000000000E+00   0.00000000000000E+00   0.00000000000000E+00   0.00000000000000E+00  -1.00256932964955E-05
     -2.50118936834780E-23  -1.00256932964955E-05   4.14704987342182E-16   1.00000000000000E-03   1.00000000000000E-03
      0.00000000000000E+00   0.00000000000000E+00   1.00256932965164E-05   2.10302258383007E-22   1.00256932965164E-05
      6.19211518825186E-16  -5.00000000000000E-01  -5.00000000000000E-01   0.00000000000000E+00   0.00000000000000E+00
      0.00000000000000E+00   0.00000000000000E+00   0.00000000000000E+00  -4.93641036661763E-16
      2.17333333333333E-03
      0.00000000000000E+00   0.00000000000000E+00   0.00000000000000E+00   0.00000000000000E+00  -2.14611892557239E-05
     -5.35909837163185E-23  -2.14611892557239E-05   4.14551258277060E-16   2.17333333333333E-03   2.17333333333333E-03
      0.00000000000000E+00   0.00000000000000E+00   2.14611892557431E-05   4.49359261389063E-22   2.14611892557431E-05
      6.19588765980000E-16  -5.00000000000000E-01  -5.00000000000000E-01   0.00000000000000E+00   0.00000000000000E+00
      0.00000000000000E+00   0.00000000000000E+00   0.00000000000000E+00  -4.93906685404023E-16
      3.56568888888889E-03
      0.00000000000000E+00   0.00000000000000E+00   0.00000000000000E+00   0.00000000000000E+00  -3.45416508680424E-05
     -8.63566644172670E-23  -3.45416508680424E-05   4.14368285089469E-16   3.56568888888889E-03   3.56568888888889E-03
      0.00000000000000E+00   0.00000000000000E+00   3.45416508680483E-05   7.22557911973902E-22   3.45416508680483E-05
      6.20038370456835E-16  -5.00000000000000E-01  -5.00000000000000E-01   0.00000000000000E+00   0.00000000000000E+00
      0.00000000000000E+00   0.00000000000000E+00   0.00000000000000E+00  -4.94221103759313E-16
      5.21795081481481E-03
      0.00000000000000E+00   0.00000000000000E+00   0.00000000000000E+00   0.00000000000000E+00  -4.93608882299172E-05
     -1.23700188616595E-22  -4.93608882299172E-05   4.14150460844582E-16   5.21795081481481E-03   5.21795081481481E-03
      0.00000000000000E+00   0.00000000000000E+00   4.93608882299268E-05   1.03233938998744E-21   4.93608882299268E-05
      6.20574708377057E-16  -5.00000000000000E-01  -5.00000000000000E-01   0.00000000000000E+00   0.00000000000000E+00
      0.00000000000000E+00   0.00000000000000E+00   0.00000000000000E+00  -4.94593125950876E-16
      7.17863496691358E-03
      0.00000000000000E+00   0.00000000000000E+00   0.00000000000000E+00   0.00000000000000E+00  -6.59606387726884E-05
     -1.65859526631854E-22  -6.59606387726884E-05   4.13891210411821E-16   7.17863496691358E-03   7.17863496691358E-03
      0.00000000000000E+00   0.00000000000000E+00   6.59606387726913E-05   1.38034909447008E-21   6.59606387726913E-05
      6.21215191628786E-16  -5.00000000000000E-01  -5.00000000000000E-01   0.00000000000000E+00   0.00000000000000E+00
      0.00000000000000E+00   0.00000000000000E+00   0.00000000000000E+00  -4.95033064112472E-16
      9.50531349407078E-03
      0.00000000000000E+00   0.00000000000000E+00   0.00000000000000E+00   0.00000000000000E+00  -8.43046530393019E-05
     -2.12970736319580E-22  -8.43046530393019E-05   4.13582919825378E-16   9.50531349407078E-03   9.50531349407078E-03
      0.00000000000000E+00   0.00000000000000E+00   8.43046530393049E-05   1.76682943385822E-21   8.43046530393049E-05
      6.21980973541134E-16  -5.00000000000000E-01  -5.00000000000000E-01   0.00000000000000E+00   0.00000000000000E+00
      0.00000000000000E+00   0.00000000000000E+00   0.00000000000000E+00  -4.95553044988135E-16
      1.22663053462973E-02
      0.00000000000000E+00   0.00000000000000E+00   0.00000000000000E+00   0.00000000000000E+00  -1.04252943150007E-04
     -2.64947450810754E-22  -1.04252943150007E-04   4.13216974347757E-16   1.22663053462973E-02   1.22663053462973E-02
      0.00000000000000E+00   0.00000000000000E+00   1.04252943149999E-04   2.19002656284126E-21   1.04252943149999E-04
      6.22897863945053E-16  -5.00000000000000E-01  -5.00000000000000E-01   0.00000000000000E+00   0.00000000000000E+00
      0.00000000000000E+00   0.00000000000000E+00   0.00000000000000E+00  -4.96167261767659E-16
      1.55426823442728E-02
      0.00000000000000E+00   0.00000000000000E+00   0.00000000000000E+00   0.00000000000000E+00  -1.25543819864829E-04
     -3.21538890853675E-22  -1.25543819864829E-04   4.12783964556616E-16   1.55426823442728E-02   1.55426823442728E-02
      0.00000000000000E+00   0.00000000000000E+00   1.25543819864846E-04   2.64539661499383E-21   1.25543819864846E-04
      6.23997518161699E-16  -5.00000000000000E-01  -5.00000000000000E-01   0.00000000000000E+00   0.00000000000000E+00
      0.00000000000000E+00   0.00000000000000E+00   0.00000000000000E+00  -4.96892420721192E-16
      1.94306497152037E-02
      0.00000000000000E+00   0.00000000000000E+00   0.00000000000000E+00   0.00000000000000E+00  -1.47797664415674E-04
     -3.81771603748815E-22  -1.47797664415674E-04   4.12274227836245E-16   1.94306497152037E-02   1.94306497152037E-02
      0.00000000000000E+00   0.00000000000000E+00   1.47797664415704E-04   3.12518153756412E-21   1.47797664415704E-04
      6.25319096983988E-16  -5.00000000000000E-01  -5.00000000000000E-01   0.00000000000000E+00   0.00000000000000E+00
      0.00000000000000E+00   0.00000000000000E+00   0.00000000000000E+00  -4.97747773496634E-16
      2.40443709953751E-02
      0.00000000000000E+00   0.00000000000000E+00   0.00000000000000E+00   0.00000000000000E+00  -1.70563133262724E-04
     -4.45375912379885E-22  -1.70563133262724E-04   4.11678659120414E-16   2.40443709953751E-02   2.40443709953751E-02
      0.00000000000000E+00   0.00000000000000E+00   1.70563133262794E-04   3.61721509154163E-21   1.70563133262794E-04
      6.26911499389160E-16  -5.00000000000000E-01  -5.00000000000000E-01   0.00000000000000E+00   0.00000000000000E+00
      0.00000000000000E+00   0.00000000000000E+00   0.00000000000000E+00  -4.98756741278795E-16
      2.95193202478451E-02
      0.00000000000000E+00   0.00000000000000E+00   0.00000000000000E+00   0.00000000000000E+00  -1.93429547577891E-04
     -5.11236651346463E-22  -1.93429547577891E-04   4.10990133169912E-16   2.95193202478451E-02   2.95193202478451E-02
      0.00000000000000E+00   0.00000000000000E+00   1.93429547578117E-04   4.10585210457850E-21   1.93429547578117E-04
      6.28836900736059E-16  -5.00000000000000E-01  -5.00000000000000E-01   0.00000000000000E+00   0.00000000000000E+00
      0.00000000000000E+00   0.00000000000000E+00   0.00000000000000E+00  -4.99946316152545E-16
      3.60162600274429E-02
      0.00000000000000E+00   0.00000000000000E+00   0.00000000000000E+00   0.00000000000000E+00  -2.16218080601581E-04
     -5.78526550763561E-22  -2.16218080601581E-04   4.10204801912462E-16   3.60162600274429E-02   3.60162600274429E-02
      0.00000000000000E+00   0.00000000000000E+00   2.16218080601578E-04   4.57239796090738E-21   2.16218080601578E-04
      6.31175767779432E-16  -5.00000000000000E-01  -5.00000000000000E-01   0.00000000000000E+00   0.00000000000000E+00
      0.00000000000000E+00   0.00000000000000E+00   0.00000000000000E+00  -5.01348608824247E-16
      4.36393360355042E-02
      0.00000000000000E+00   0.00000000000000E+00   0.00000000000000E+00   0.00000000000000E+00  -2.38974714722801E-04
     -6.46427723984391E-22  -2.38974714722801E-04   4.09331876917426E-16   4.36393360355042E-02   4.36393360355042E-02
      0.00000000000000E+00   0.00000000000000E+00   2.38974714722818E-04   4.99304578794243E-21   2.38974714722818E-04
      6.34000808795004E-16  -5.00000000000000E-01  -5.00000000000000E-01   0.00000000000000E+00   0.00000000000000E+00
      0.00000000000000E+00   0.00000000000000E+00   0.00000000000000E+00  -5.02983454167844E-16
      5.25837452182962E-02
      0.00000000000000E+00   0.00000000000000E+00   0.00000000000000E+00   0.00000000000000E+00  -2.62590939514576E-04
     -7.15993324015770E-22  -2.62590939514576E-04   4.08372159807450E-16   5.25837452182962E-02   5.25837452182962E-02
      0.00000000000000E+00   0.00000000000000E+00   2.62590939514589E-04   5.35268501079323E-21   2.62590939514589E-04
      6.37431987532612E-16  -5.00000000000000E-01  -5.00000000000000E-01   0.00000000000000E+00   0.00000000000000E+00
      0.00000000000000E+00   0.00000000000000E+00   0.00000000000000E+00  -5.04890463075186E-16
      6.30785186594389E-02
      0.00000000000000E+00   0.00000000000000E+00   0.00000000000000E+00   0.00000000000000E+00  -2.88432785335500E-04
     -7.89254503677896E-22  -2.88432785335500E-04   4.07318752293354E-16   6.30785186594389E-02   6.30785186594389E-02
      0.00000000000000E+00   0.00000000000000E+00   2.88432785335477E-04   5.64124567781936E-21   2.88432785335477E-04
      6.41616256821861E-16  -5.00000000000000E-01  -5.00000000000000E-01   0.00000000000000E+00   0.00000000000000E+00
      0.00000000000000E+00   0.00000000000000E+00   0.00000000000000E+00  -5.07116363241671E-16
      7.53923861637129E-02
      0.00000000000000E+00   0.00000000000000E+00   0.00000000000000E+00   0.00000000000000E+00  -3.18192881233558E-04
     -8.69947259998197E-22  -3.18192881233558E-04   4.06152146982349E-16   7.53923861637129E-02   7.53923861637129E-02
      0.00000000000000E+00   0.00000000000000E+00   3.18192881233552E-04   5.85518374120539E-21   3.18192881233552E-04
      6.46733916076644E-16  -5.00000000000000E-01  -5.00000000000000E-01   0.00000000000000E+00   0.00000000000000E+00
      0.00000000000000E+00   0.00000000000000E+00   0.00000000000000E+00  -5.09716354988668E-16
      8.98406573687277E-02
      0.00000000000000E+00   0.00000000000000E+00   0.00000000000000E+00   0.00000000000000E+00  -3.53543294467474E-04
     -9.63485357321974E-22  -3.53543294467474E-04   4.04842871615015E-16   8.98406573687277E-02   8.98406573687277E-02
      0.00000000000000E+00   0.00000000000000E+00   3.53543294467483E-04   5.99841426453741E-21   3.53543294467483E-04
      6.53008035304731E-16  -5.00000000000000E-01  -5.00000000000000E-01   0.00000000000000E+00   0.00000000000000E+00
      0.00000000000000E+00   0.00000000000000E+00   0.00000000000000E+00  -5.12754787837715E-16
      1.06793295582612E-01
      0.00000000000000E+00   0.00000000000000E+00   0.00000000000000E+00   0.00000000000000E+00  -3.95254056829149E-04
     -1.07688344278609E-21  -3.95254056829149E-04   4.03361615769849E-16   1.06793295582612E-01   1.06793295582612E-01
      0.00000000000000E+00   0.00000000000000E+00   3.95254056829156E-04   6.08476310248720E-21   3.95254056829156E-04
      6.60684421341102E-16  -5.00000000000000E-01  -5.00000000000000E-01   0.00000000000000E+00   0.00000000000000E+00
      0.00000000000000E+00   0.00000000000000E+00   0.00000000000000E+00  -5.16306222949659E-16
      1.26684391086902E-01
      0.00000000000000E+00   0.00000000000000E+00   0.00000000000000E+00   0.00000000000000E+00  -4.43509802170092E-04
     -1.22062464864815E-21  -4.43509802170092E-04   4.01686730763319E-16   1.26684391086902E-01   1.26684391086902E-01
      0.00000000000000E+00   0.00000000000000E+00   4.43509802170082E-04   6.13930713089403E-21   4.43509802170082E-04
      6.70021303397715E-16  -5.00000000000000E-01  -5.00000000000000E-01   0.00000000000000E+00   0.00000000000000E+00
      0.00000000000000E+00   0.00000000000000E+00   0.00000000000000E+00  -5.20457434203164E-16
      1.50023276478603E-01
      0.00000000000000E+00   0.00000000000000E+00   0.00000000000000E+00   0.00000000000000E+00  -4.99214424895319E-04
     -1.41387798890365E-21  -4.99214424895319E-04   3.99798997886687E-16   1.50023276478603E-01   1.50023276478603E-01
      0.00000000000000E+00   0.00000000000000E+00   4.99214424895324E-04   6.19496292942131E-21   4.99214424895324E-04
      6.81334967806410E-16  -5.00000000000000E-01  -5.00000000000000E-01   0.00000000000000E+00   0.00000000000000E+00
      0.00000000000000E+00   0.00000000000000E+00   0.00000000000000E+00  -5.25310105886508E-16
      1.77407568671533E-01
      0.00000000000000E+00   0.00000000000000E+00   0.00000000000000E+00   0.00000000000000E+00  -5.64166250938706E-04
     -1.69329385434940E-21  -5.64166250938706E-04   3.97675413045572E-16   1.77407568671533E-01   1.77407568671533E-01
      0.00000000000000E+00   0.00000000000000E+00   5.64166250938711E-04   6.26721107378839E-21   5.64166250938711E-04
      6.95034539441533E-16  -5.00000000000000E-01  -5.00000000000000E-01   0.00000000000000E+00   0.00000000000000E+00
      0.00000000000000E+00   0.00000000000000E+00   0.00000000000000E+00  -5.30983224637260E-16
      2.09538471511236E-01
      0.00000000000000E+00   0.00000000000000E+00   0.00000000000000E+00   0.00000000000000E+00  -6.40707312970681E-04
     -2.13039896306032E-21  -6.40707312970681E-04   3.95285473757436E-16   2.09538471511236E-01   2.09538471511236E-01
      0.00000000000000E+00   0.00000000000000E+00   6.40707312970702E-04   6.35624718172826E-21   6.40707312970702E-04
      7.11656311786668E-16  -5.00000000000000E-01  -5.00000000000000E-01   0.00000000000000E+00   0.00000000000000E+00
      0.00000000000000E+00   0.00000000000000E+00   0.00000000000000E+00  -5.37618237486032E-16
      2.47238730843155E-01
      0.00000000000000E+00   0.00000000000000E+00   0.00000000000000E+00   0.00000000000000E+00  -7.31223330739517E-04
     -2.86823060256457E-21  -7.31223330739517E-04   3.92592625399163E-16   2.47238730843155E-01   2.47238730843155E-01
      0.00000000000000E+00   0.00000000000000E+00   7.31223330739518E-04   6.47580198121362E-21   7.31223330739518E-04
      7.31952262305425E-16  -5.00000000000000E-01  -5.00000000000000E-01   0.00000000000000E+00   0.00000000000000E+00
      0.00000000000000E+00   0.00000000000000E+00   0.00000000000000E+00  -5.45388094915697E-16
      2.90971031668181E-01
      0.00000000000000E+00   0.00000000000000E+00   0.00000000000000E+00   0.00000000000000E+00  -8.36557039043776E-04
     -4.19006299081876E-21  -8.36557039043776E-04   3.89594699379513E-16   2.90971031668181E-01   2.90971031668181E-01
      0.00000000000000E+00   0.00000000000000E+00   8.36557039043762E-04   6.61840658127280E-21   8.36557039043762E-04
      7.56604477800519E-16  -5.00000000000000E-01  -5.00000000000000E-01   0.00000000000000E+00   0.00000000000000E+00
      0.00000000000000E+00   0.00000000000000E+00   0.00000000000000E+00  -5.54407101010456E-16
      3.41700500625211E-01
      0.00000000000000E+00   0.00000000000000E+00   0.00000000000000E+00   0.00000000000000E+00  -9.58921387033534E-04
     -6.75366731404412E-21  -9.58921387033534E-04   3.86261110835219E-16   3.41700500625211E-01   3.41700500625211E-01
      0.00000000000000E+00   0.00000000000000E+00   9.58921387033507E-04   6.77984461377618E-21   9.58921387033507E-04
      7.86233035630654E-16  -5.00000000000000E-01  -5.00000000000000E-01   0.00000000000000E+00   0.00000000000000E+00
      0.00000000000000E+00   0.00000000000000E+00   0.00000000000000E+00  -5.64943792529805E-16
      4.00546684615366E-01
      0.00000000000000E+00   0.00000000000000E+00   0.00000000000000E+00   0.00000000000000E+00  -1.10183777138623E-03
     -1.22981700944148E-20  -1.10183777138623E-03   3.82550369652439E-16   4.00546684615366E-01   4.00546684615366E-01
      0.00000000000000E+00   0.00000000000000E+00   1.10183777138624E-03   6.96667594641116E-21   1.10183777138624E-03
      8.21456643032925E-16  -5.00000000000000E-01  -5.00000000000000E-01   0.00000000000000E+00   0.00000000000000E+00
      0.00000000000000E+00   0.00000000000000E+00   0.00000000000000E+00  -5.77437244594116E-16
      4.68808258043945E-01
      0.00000000000000E+00   0.00000000000000E+00   0.00000000000000E+00   0.00000000000000E+00  -1.26968396353519E-03
     -2.54131857184406E-20  -1.26968396353519E-03   3.78407054142657E-16   4.68808258043945E-01   4.68808258043945E-01
      0.00000000000000E+00   0.00000000000000E+00   1.26968396353519E-03   7.18709013776274E-21   1.26968396353519E-03
      8.63195444111725E-16  -5.00000000000000E-01  -5.00000000000000E-01   0.00000000000000E+00   0.00000000000000E+00
      0.00000000000000E+00   0.00000000000000E+00   0.00000000000000E+00  -5.92497734939530E-16
      5.47991683221098E-01
      0.00000000000000E+00   0.00000000000000E+00   0.00000000000000E+00   0.00000000000000E+00  -1.46706306181130E-03
     -5.12714687246359E-20  -1.46706306181130E-03   3.73854113308452E-16   5.47991683221098E-01   5.47991683221098E-01
      0.00000000000000E+00   0.00000000000000E+00   1.46706306181127E-03   7.44973671268030E-21   1.46706306181127E-03
      9.12792830845589E-16  -5.00000000000000E-01  -5.00000000000000E-01   0.00000000000000E+00   0.00000000000000E+00
      0.00000000000000E+00   0.00000000000000E+00   0.00000000000000E+00  -6.09814916920255E-16
      6.37732898421870E-01
      0.00000000000000E+00   0.00000000000000E+00   0.00000000000000E+00   0.00000000000000E+00  -1.69277092899254E-03
     -7.65283003344350E-20  -1.69277092899254E-03   3.69162351554686E-16   6.37732898421870E-01   6.37732898421870E-01
      0.00000000000000E+00   0.00000000000000E+00   1.69277092899254E-03   7.75552502662410E-21   1.69277092899254E-03
      9.70712310014297E-16  -5.00000000000000E-01  -5.00000000000000E-01   0.00000000000000E+00   0.00000000000000E+00
      0.00000000000000E+00   0.00000000000000E+00   0.00000000000000E+00  -6.26967313032478E-16
      7.38243059446736E-01
      0.00000000000000E+00   0.00000000000000E+00   0.00000000000000E+00   0.00000000000000E+00  -1.94653077737467E-03
     -8.85071185055946E-20  -1.94653077737467E-03   3.64369193867612E-16   7.38243059446736E-01   7.38243059446736E-01
      0.00000000000000E+00   0.00000000000000E+00   1.94653077737465E-03   8.10468456520657E-21   1.94653077737465E-03
      1.03779108028519E-15  -5.00000000000000E-01  -5.00000000000000E-01   0.00000000000000E+00   0.00000000000000E+00
      0.00000000000000E+00   0.00000000000000E+00   0.00000000000000E+00  -6.43774879872809E-16
      8.50814439794585E-01
      0.00000000000000E+00   0.00000000000000E+00   0.00000000000000E+00   0.00000000000000E+00  -2.23114910151531E-03
     -1.15504951027939E-19  -2.23114910151531E-03   3.59198690811256E-16   8.50814439794585E-01   8.50814439794585E-01
      0.00000000000000E+00   0.00000000000000E+00   2.23114910151530E-03   8.50376136487650E-21   2.23114910151530E-03
      1.11574054720767E-15  -5.00000000000000E-01  -5.00000000000000E-01   0.00000000000000E+00   0.00000000000000E+00
      0.00000000000000E+00   0.00000000000000E+00   0.00000000000000E+00  -6.63236605236659E-16
      9.79896289260118E-01
      0.00000000000000E+00   0.00000000000000E+00   0.00000000000000E+00   0.00000000000000E+00  -2.55756728726322E-03
     -2.76888065548324E-19  -2.55756728726322E-03   3.53115244814303E-16   9.79896289260118E-01   9.79896289260118E-01
      0.00000000000000E+00   0.00000000000000E+00   2.55756728726320E-03   8.97342799982830E-21   2.55756728726320E-03
      1.20943617217837E-15  -5.00000000000000E-01  -5.00000000000000E-01   0.00000000000000E+00   0.00000000000000E+00
      0.00000000000000E+00   0.00000000000000E+00   0.00000000000000E+00  -6.90353571398943E-16
      1.00000000000000E+00
      0.00000000000000E+00   0.00000000000000E+00   0.00000000000000E+00   0.00000000000000E+00  -2.60844697135166E-03
     -3.43767412933327E-19  -2.60844697135166E-03   3.52115386185521E-16   1.00000000000000E+00   1.00000000000000E+00
      0.00000000000000E+00   0.00000000000000E+00   2.60844697135166E-03   9.04785684002636E-21   2.60844697135166E-03
      1.22452873992187E-15  -5.00000000000000E-01  -5.00000000000000E-01   0.00000000000000E+00   0.00000000000000E+00
      0.00000000000000E+00   0.00000000000000E+00   0.00000000000000E+00  -6.95400463942679E-16
      0.00000000000000E+00
      0.00000000000000E+00   0.00000000000000E+00   0.00000000000000E+00   0.00000000000000E+00  -2.60844697212460E-03
     -3.43767481921977E-19  -2.60844697212460E-03   3.52115386016209E-16   1.00000000000000E+00   1.00000000000000E+00
      0.00000000000000E+00   0.00000000000000E+00   2.60844697212461E-03   9.04785684109272E-21   2.60844697212461E-03
      1.22452873983902E-15  -5.00000000000000E-01  -5.00000000000000E-01   0.00000000000000E+00   0.00000000000000E+00
      0.00000000000000E+00   0.00000000000000E+00   0.00000000000000E+00  -6.95400465825259E-16
      1.00000000000000E-03
      0.00000000000000E+00   0.00000000000000E+00   0.00000000000000E+00   0.00000000000000E+00  -2.60868887314440E-03
     -3.35901415158887E-19  -2.60868887314440E-03   3.51921381474638E-16   1.00000000000000E+00   1.00000000000000E+00
      0.00000000000000E+00   0.00000000000000E+00   2.60868887314439E-03   9.04814933998462E-21   2.60868887314439E-03
      1.22425990823229E-15  -4.98000000000000E-01  -4.98000000000000E-01   0.00000000000000E+00   0.00000000000000E+00
      0.00000000000000E+00   0.00000000000000E+00   0.00000000000000E+00  -6.93893635530177E-16
      2.17333333333333E-03
      0.00000000000000E+00   0.00000000000000E+00   0.00000000000000E+00   0.00000000000000E+00  -2.60897599327249E-03
     -3.26614460153650E-19  -2.60897599327249E-03   3.51692882335505E-16   1.00000000000000E+00   1.00000000000000E+00
      0.00000000000000E+00   0.00000000000000E+00   2.60897599327250E-03   9.04849693452357E-21   2.60897599327250E-03
      1.22394405273416E-15  -4.95653333333333E-01  -4.95653333333333E-01   0.00000000000000E+00   0.00000000000000E+00
      0.00000000000000E+00   0.00000000000000E+00   0.00000000000000E+00  -6.92133591978828E-16
      3.56568888888889E-03
      0.00000000000000E+00   0.00000000000000E+00   0.00000000000000E+00   0.00000000000000E+00  -2.60932138873944E-03
     -3.15504005700372E-19  -2.60932138873944E-03   3.51420517662056E-16   1.00000000000000E+00   1.00000000000000E+00
      0.00000000000000E+00   0.00000000000000E+00   2.60932138873946E-03   9.04891566492947E-21   2.60932138873946E-03
      1.22356863246696E-15  -4.92868622222222E-01  -4.92868622222222E-01   0.00000000000000E+00   0.00000000000000E+00
      0.00000000000000E+00   0.00000000000000E+00   0.00000000000000E+00  -6.90056347798544E-16
      5.19938607407407E-03
      0.00000000000000E+00   0.00000000000000E+00   0.00000000000000E+00   0.00000000000000E+00  -2.60973338876626E-03
     -3.02338584481772E-19  -2.60973338876626E-03   3.51099238658960E-16   1.00000000000000E+00   1.00000000000000E+00
      0.00000000000000E+00   0.00000000000000E+00   2.60973338876628E-03   9.04941597741980E-21   2.60973338876628E-03
      1.22312727364281E-15  -4.89601227851852E-01  -4.89601227851852E-01   0.00000000000000E+00   0.00000000000000E+00
      0.00000000000000E+00   0.00000000000000E+00   0.00000000000000E+00  -6.87635378289786E-16
      7.13804006716049E-03
      0.00000000000000E+00   0.00000000000000E+00   0.00000000000000E+00   0.00000000000000E+00  -2.61023186362985E-03
     -2.86497352966877E-19  -2.61023186362985E-03   3.50715621349906E-16   1.00000000000000E+00   1.00000000000000E+00
      0.00000000000000E+00   0.00000000000000E+00   2.61023186362987E-03   9.05002246063196E-21   2.61023186362987E-03
      1.22260229909648E-15  -4.85723919865679E-01  -4.85723919865679E-01   0.00000000000000E+00   0.00000000000000E+00
      0.00000000000000E+00   0.00000000000000E+00   0.00000000000000E+00  -6.84785698968482E-16
      9.41272741904856E-03
      0.00000000000000E+00   0.00000000000000E+00   0.00000000000000E+00   0.00000000000000E+00  -2.61083093930128E-03
     -2.67602504472811E-19  -2.61083093930128E-03   3.50262112395528E-16   1.00000000000000E+00   1.00000000000000E+00
      0.00000000000000E+00   0.00000000000000E+00   2.61083093930126E-03   9.05075305011506E-21   2.61083093930126E-03
      1.22198452294811E-15  -4.81174545161903E-01  -4.81174545161903E-01   0.00000000000000E+00   0.00000000000000E+00
      0.00000000000000E+00   0.00000000000000E+00   0.00000000000000E+00  -6.81476525767197E-16
      1.21120230766224E-02
      0.00000000000000E+00   0.00000000000000E+00   0.00000000000000E+00   0.00000000000000E+00  -2.61156393403570E-03
     -2.44768935141996E-19  -2.61156393403570E-03   3.49718857615381E-16   1.00000000000000E+00   1.00000000000000E+00
      0.00000000000000E+00   0.00000000000000E+00   2.61156393403572E-03   9.05164960678516E-21   2.61156393403572E-03
      1.22124865978859E-15  -4.75775953846755E-01  -4.75775953846755E-01   0.00000000000000E+00   0.00000000000000E+00
      0.00000000000000E+00   0.00000000000000E+00   0.00000000000000E+00  -6.77603254013311E-16
      1.52791966481757E-02
      0.00000000000000E+00   0.00000000000000E+00   0.00000000000000E+00   0.00000000000000E+00  -2.61246039298117E-03
     -2.17568846869661E-19  -2.61246039298117E-03   3.49073387402043E-16   1.00000000000000E+00   1.00000000000000E+00
      0.00000000000000E+00   0.00000000000000E+00   2.61246039298119E-03   9.05275051065427E-21   2.61246039298119E-03
      1.22038079950448E-15  -4.69441606703649E-01  -4.69441606703649E-01   0.00000000000000E+00   0.00000000000000E+00
      0.00000000000000E+00   0.00000000000000E+00   0.00000000000000E+00  -6.73146927472482E-16
      1.89953469721316E-02
      0.00000000000000E+00   0.00000000000000E+00   0.00000000000000E+00   0.00000000000000E+00  -2.61357719947715E-03
     -1.85647011904315E-19  -2.61357719947715E-03   3.48302210256571E-16   1.00000000000000E+00   1.00000000000000E+00
      0.00000000000000E+00   0.00000000000000E+00   2.61357719947712E-03   9.05412998944314E-21   2.61357719947712E-03
      1.21935487415207E-15  -4.62009306055737E-01  -4.62009306055737E-01   0.00000000000000E+00   0.00000000000000E+00
      0.00000000000000E+00   0.00000000000000E+00   0.00000000000000E+00  -6.68075363671902E-16
      2.33060813479204E-02
      0.00000000000000E+00   0.00000000000000E+00   0.00000000000000E+00   0.00000000000000E+00  -2.61499591335870E-03
     -1.50158509241933E-19  -2.61499591335870E-03   3.47382140276823E-16   1.00000000000000E+00   1.00000000000000E+00
      0.00000000000000E+00   0.00000000000000E+00   2.61499591335867E-03   9.05589752800695E-21   2.61499591335867E-03
      1.21815101103475E-15  -4.53387837304159E-01  -4.53387837304159E-01   0.00000000000000E+00   0.00000000000000E+00
      0.00000000000000E+00   0.00000000000000E+00   0.00000000000000E+00  -6.62489123228711E-16
      2.83640096821793E-02
      0.00000000000000E+00   0.00000000000000E+00   0.00000000000000E+00   0.00000000000000E+00  -2.61689803143759E-03
     -1.14002253618887E-19  -2.61689803143759E-03   3.46254191931972E-16   1.00000000000000E+00   1.00000000000000E+00
      0.00000000000000E+00   0.00000000000000E+00   2.61689803143762E-03   9.05829532669872E-21   2.61689803143762E-03
      1.21671326749808E-15  -4.43271980635641E-01  -4.43271980635641E-01   0.00000000000000E+00   0.00000000000000E+00
      0.00000000000000E+00   0.00000000000000E+00   0.00000000000000E+00  -6.56502470152510E-16
      3.42986455943763E-02
      0.00000000000000E+00   0.00000000000000E+00   0.00000000000000E+00   0.00000000000000E+00  -2.61951761488136E-03
     -8.31533701681645E-20  -2.61951761488136E-03   3.44852457842678E-16   1.00000000000000E+00   1.00000000000000E+00
      0.00000000000000E+00   0.00000000000000E+00   2.61951761488136E-03   9.06163829649924E-21   2.61951761488136E-03
      1.21498717412535E-15  -4.31402708811247E-01  -4.31402708811247E-01   0.00000000000000E+00   0.00000000000000E+00
      0.00000000000000E+00   0.00000000000000E+00   0.00000000000000E+00  -6.50395643111737E-16
      4.12619517313543E-02
      0.00000000000000E+00   0.00000000000000E+00   0.00000000000000E+00   0.00000000000000E+00  -2.62303245606637E-03
     -6.17397608273512E-20  -2.62303245606637E-03   3.43120057260705E-16   1.00000000000000E+00   1.00000000000000E+00