DF-ISE text

Info {
  version   = 1.0
  type      = xyplot
  datasets  = [
    "time"
    "S OuterVoltage" "S InnerVoltage" "S QuasiFermiPotential" "S DisplacementCurrent" "S eCurrent"
    "S hCurrent" "S TotalCurrent" "S Charge" "D OuterVoltage" "D InnerVoltage"
    "D QuasiFermiPotential" "D DisplacementCurrent" "D eCurrent" "D hCurrent" "D TotalCurrent"
    "D Charge" "G OuterVoltage" "G InnerVoltage" "G QuasiFermiPotential" "G DisplacementCurrent"
    "G eCurrent" "G hCurrent" "G TotalCurrent" "G Charge" ]
  functions = [
    Time
    OuterVoltage InnerVoltage QuasiFermiPotential DisplacementCurrent eCurrent
    hCurrent TotalCurrent Charge OuterVoltage InnerVoltage
    QuasiFermiPotential DisplacementCurrent eCurrent hCurrent TotalCurrent
    Charge OuterVoltage InnerVoltage QuasiFermiPotential DisplacementCurrent
    eCurrent hCurrent TotalCurrent Charge ]
}

Data {
      0.00000000000000E+00
      0.00000000000000E+00   0.00000000000000E+00   0.00000000000000E+00   0.00000000000000E+00   4.89541338629551E-19
     -7.29966916251759E-34   4.89541338629550E-19   6.86211369417401E-16   0.00000000000000E+00   0.00000000000000E+00
      0.00000000000000E+00   0.00000000000000E+00   3.83720550932421E-37  -7.98431870037686E-34  -7.98048149486753E-34
      8.89508957004347E-16  -5.00000000000000E-01  -5.00000000000000E-01   0.00000000000000E+00   0.00000000000000E+00
      0.00000000000000E+00   0.00000000000000E+00   0.00000000000000E+00  -3.09916691701013E-16
      0.00000000000000E+00
      0.00000000000000E+00   0.00000000000000E+00   0.00000000000000E+00   0.00000000000000E+00  -9.79083222527880E-19
      9.15881758335503E-31  -9.79083222526964E-19   6.86211367341403E-16   0.00000000000000E+00   0.00000000000000E+00
      0.00000000000000E+00   0.00000000000000E+00   2.92559415710168E-18   9.19459192184168E-31   2.92559415710260E-18
      8.89508954634840E-16  -5.00000000000000E-01  -5.00000000000000E-01   0.00000000000000E+00   0.00000000000000E+00
      0.00000000000000E+00   0.00000000000000E+00   0.00000000000000E+00  -3.09916691701632E-16
      1.00000000000000E-03
      0.00000000000000E+00   0.00000000000000E+00   0.00000000000000E+00   0.00000000000000E+00  -1.30789452110322E-18
     -8.14271421474280E-22  -1.30870879252470E-18   6.85947431952210E-16   1.00000000000000E-03   1.00000000000000E-03
      0.00000000000000E+00   0.00000000000000E+00   6.34305661714724E-18   6.46476055421613E-22   6.34370309320266E-18
      8.89853260299905E-16  -5.00000000000000E-01  -5.00000000000000E-01   0.00000000000000E+00   0.00000000000000E+00
      0.00000000000000E+00   0.00000000000000E+00   0.00000000000000E+00  -3.10587416981992E-16
      2.17333333333333E-03
      0.00000000000000E+00   0.00000000000000E+00   0.00000000000000E+00   0.00000000000000E+00  -1.12644437758020E-17
     -1.78224298395831E-21  -1.12662260187859E-17   6.85640629511473E-16   2.17333333333333E-03   2.17333333333333E-03
      0.00000000000000E+00   0.00000000000000E+00   9.52672431857790E-18   1.40004478206832E-21   9.52812436335996E-18
      8.90260396321313E-16  -5.00000000000000E-01  -5.00000000000000E-01   0.00000000000000E+00   0.00000000000000E+00
      0.00000000000000E+00   0.00000000000000E+00   0.00000000000000E+00  -3.11368058212688E-16
      3.56568888888889E-03
      0.00000000000000E+00   0.00000000000000E+00   0.00000000000000E+00   0.00000000000000E+00  -1.47756727755995E-17
     -2.94820924390552E-21  -1.47786209848434E-17   6.85280618355900E-16   3.56568888888889E-03   3.56568888888889E-03
      0.00000000000000E+00   0.00000000000000E+00   1.35176591472711E-17   2.28699045589023E-21   1.35199461377270E-17
      8.90747954605264E-16  -5.00000000000000E-01  -5.00000000000000E-01   0.00000000000000E+00   0.00000000000000E+00
      0.00000000000000E+00   0.00000000000000E+00   0.00000000000000E+00  -3.12285496737168E-16
      5.21795081481481E-03
      0.00000000000000E+00   0.00000000000000E+00   0.00000000000000E+00   0.00000000000000E+00  -2.36800595562690E-17
     -4.35567733712809E-21  -2.36844152336062E-17   6.84859160557764E-16   5.21795081481481E-03   5.21795081481481E-03
      0.00000000000000E+00   0.00000000000000E+00   2.17827784214103E-17   3.32868478265090E-21   2.17861071061929E-17
      8.91332765475042E-16  -5.00000000000000E-01  -5.00000000000000E-01   0.00000000000000E+00   0.00000000000000E+00
      0.00000000000000E+00   0.00000000000000E+00   0.00000000000000E+00  -3.13361572170109E-16
      7.17863496691358E-03
      0.00000000000000E+00   0.00000000000000E+00   0.00000000000000E+00   0.00000000000000E+00  -2.87621917982842E-17
     -6.05853189363216E-21  -2.87682503301778E-17   6.84367190316360E-16   7.17863496691358E-03   7.17863496691358E-03
      0.00000000000000E+00   0.00000000000000E+00   2.90296811245979E-17   4.54870450596377E-21   2.90342298291039E-17
      8.92035544565259E-16  -5.00000000000000E-01  -5.00000000000000E-01   0.00000000000000E+00   0.00000000000000E+00
      0.00000000000000E+00   0.00000000000000E+00   0.00000000000000E+00  -3.14620668773571E-16
      9.50531349407078E-03
      0.00000000000000E+00   0.00000000000000E+00   0.00000000000000E+00   0.00000000000000E+00  -4.04363154339205E-17
     -8.12355127119201E-21  -4.04444389851917E-17   6.83794954305864E-16   9.50531349407078E-03   9.50531349407078E-03
      0.00000000000000E+00   0.00000000000000E+00   4.70141740881562E-17   5.97231050845602E-21   4.70201463986646E-17
      8.92881914962407E-16  -5.00000000000000E-01  -5.00000000000000E-01   0.00000000000000E+00   0.00000000000000E+00
      0.00000000000000E+00   0.00000000000000E+00   0.00000000000000E+00  -3.16089563568636E-16
      1.22663053462973E-02
      0.00000000000000E+00   0.00000000000000E+00   0.00000000000000E+00   0.00000000000000E+00  -5.73764197111399E-17
     -1.06333414111843E-20  -5.73870530525511E-17   6.83132296662986E-16   1.22663053462973E-02   1.22663053462973E-02
      0.00000000000000E+00   0.00000000000000E+00   5.58686558901540E-17   7.62535173801556E-21   5.58762812418920E-17
      8.93903731133014E-16  -5.00000000000000E-01  -5.00000000000000E-01   0.00000000000000E+00   0.00000000000000E+00
      0.00000000000000E+00   0.00000000000000E+00   0.00000000000000E+00  -3.17796999678689E-16
      1.55426823442728E-02
      0.00000000000000E+00   0.00000000000000E+00   0.00000000000000E+00   0.00000000000000E+00  -7.13959344532079E-17
     -1.36895166463720E-20  -7.14096239698543E-17   6.82369154365034E-16   1.55426823442728E-02   1.55426823442728E-02
      0.00000000000000E+00   0.00000000000000E+00   6.83391678380316E-17   9.53226505196422E-21   6.83487001030835E-17
      8.95140790681045E-16  -5.00000000000000E-01  -5.00000000000000E-01   0.00000000000000E+00   0.00000000000000E+00
      0.00000000000000E+00   0.00000000000000E+00   0.00000000000000E+00  -3.19772855976254E-16
      1.94306497152037E-02
      0.00000000000000E+00   0.00000000000000E+00   0.00000000000000E+00   0.00000000000000E+00  -8.36515715823625E-17
     -1.74156494952993E-20  -8.36689872318578E-17   6.81496346523283E-16   1.94306497152037E-02   1.94306497152037E-02
      0.00000000000000E+00   0.00000000000000E+00   8.93684439636104E-17   1.17127299672823E-20   8.93801566935777E-17
      8.96643033794685E-16  -5.00000000000000E-01  -5.00000000000000E-01   0.00000000000000E+00   0.00000000000000E+00
      0.00000000000000E+00   0.00000000000000E+00   0.00000000000000E+00  -3.22046751005299E-16
      2.40443709953751E-02
      0.00000000000000E+00   0.00000000000000E+00   0.00000000000000E+00   0.00000000000000E+00  -1.12546855479241E-16
     -2.19589200583239E-20  -1.12568814399299E-16   6.80506756542889E-16   2.40443709953751E-02   2.40443709953751E-02
      0.00000000000000E+00   0.00000000000000E+00   1.12726431370543E-16   1.41764674951464E-20   1.12740607838038E-16
      8.98473335296779E-16  -5.00000000000000E-01  -5.00000000000000E-01   0.00000000000000E+00   0.00000000000000E+00
      0.00000000000000E+00   0.00000000000000E+00   0.00000000000000E+00  -3.24645892676940E-16
      2.95193202478451E-02
      0.00000000000000E+00   0.00000000000000E+00   0.00000000000000E+00   0.00000000000000E+00  -1.31230640733064E-16
     -2.74885582865381E-20  -1.31258129291351E-16   6.79396968966458E-16   2.95193202478451E-02   2.95193202478451E-02
      0.00000000000000E+00   0.00000000000000E+00   1.31209535825120E-16   1.69156946921302E-20   1.31226451519813E-16
      9.00710933542994E-16  -5.00000000000000E-01  -5.00000000000000E-01   0.00000000000000E+00   0.00000000000000E+00
      0.00000000000000E+00   0.00000000000000E+00   0.00000000000000E+00  -3.27592070032196E-16
      3.60162600274429E-02
      0.00000000000000E+00   0.00000000000000E+00   0.00000000000000E+00   0.00000000000000E+00  -1.65018777343203E-16
     -3.41876013070365E-20  -1.65052964944510E-16   6.78169406354776E-16   3.60162600274429E-02   3.60162600274429E-02
      0.00000000000000E+00   0.00000000000000E+00   1.64687491100919E-16   1.98953178020609E-20   1.64707386418721E-16
      9.03455484697931E-16  -5.00000000000000E-01  -5.00000000000000E-01   0.00000000000000E+00   0.00000000000000E+00
      0.00000000000000E+00   0.00000000000000E+00   0.00000000000000E+00  -3.30897725625692E-16
      4.37259618992322E-02
      0.00000000000000E+00   0.00000000000000E+00   0.00000000000000E+00   0.00000000000000E+00  -2.00788024587517E-16
     -4.22334852280881E-20  -2.00830258072745E-16   6.76834762083350E-16   4.37259618992322E-02   4.37259618992322E-02
      0.00000000000000E+00   0.00000000000000E+00   1.90834350317229E-16   2.30420363248111E-20   1.90857392353554E-16
      9.06831405625935E-16  -5.00000000000000E-01  -5.00000000000000E-01   0.00000000000000E+00   0.00000000000000E+00
      0.00000000000000E+00   0.00000000000000E+00   0.00000000000000E+00  -3.34561572310067E-16
      5.28748081204222E-02
      0.00000000000000E+00   0.00000000000000E+00   0.00000000000000E+00   0.00000000000000E+00  -2.33954386772645E-16
     -5.17626062001994E-20  -2.34006149378845E-16   6.75414272726796E-16   5.28748081204222E-02   5.28748081204222E-02
      0.00000000000000E+00   0.00000000000000E+00   2.35078830779216E-16   2.62360767276402E-20   2.35105066855944E-16
      9.10991805780273E-16  -5.00000000000000E-01  -5.00000000000000E-01   0.00000000000000E+00   0.00000000000000E+00
      0.00000000000000E+00   0.00000000000000E+00   0.00000000000000E+00  -3.38564739850996E-16
      6.36094543532852E-02
      0.00000000000000E+00   0.00000000000000E+00   0.00000000000000E+00   0.00000000000000E+00  -2.75246497926964E-16
     -6.26970243714994E-20  -2.75309194951335E-16   6.73956135885953E-16   6.36094543532852E-02   6.36094543532852E-02
      0.00000000000000E+00   0.00000000000000E+00   2.74211400880799E-16   2.92818297825673E-20   2.74240682710581E-16
      9.16061875370374E-16  -5.00000000000000E-01  -5.00000000000000E-01   0.00000000000000E+00   0.00000000000000E+00
      0.00000000000000E+00   0.00000000000000E+00   0.00000000000000E+00  -3.42823793505443E-16
      7.62047725998443E-02
      0.00000000000000E+00   0.00000000000000E+00   0.00000000000000E+00   0.00000000000000E+00  -3.11845397126520E-16
     -7.49128544972498E-20  -3.11920309981017E-16   6.72500489294333E-16   7.62047725998443E-02   7.62047725998443E-02
      0.00000000000000E+00   0.00000000000000E+00   3.19257211365108E-16   3.20052494535886E-20   3.19289216614561E-16
      9.22226596899472E-16  -5.00000000000000E-01  -5.00000000000000E-01   0.00000000000000E+00   0.00000000000000E+00
      0.00000000000000E+00   0.00000000000000E+00   0.00000000000000E+00  -3.47287715980831E-16
      9.09832793424738E-02
      0.00000000000000E+00   0.00000000000000E+00   0.00000000000000E+00   0.00000000000000E+00  -3.56608814739481E-16
     -8.81272044997776E-20  -3.56696941943980E-16   6.71090493663460E-16   9.09832793424738E-02   9.09832793424738E-02
      0.00000000000000E+00   0.00000000000000E+00   3.59077147230076E-16   3.42536340194057E-20   3.59111400864095E-16
      9.29685882122717E-16  -5.00000000000000E-01  -5.00000000000000E-01   0.00000000000000E+00   0.00000000000000E+00
      0.00000000000000E+00   0.00000000000000E+00   0.00000000000000E+00  -3.51905782139924E-16
      1.08323393920492E-01
      0.00000000000000E+00   0.00000000000000E+00   0.00000000000000E+00   0.00000000000000E+00  -3.99454547457420E-16
     -1.01922049852985E-19  -3.99556469507273E-16   6.69765522640027E-16   1.08323393920492E-01   1.08323393920492E-01
      0.00000000000000E+00   0.00000000000000E+00   4.03953928588933E-16   3.59410722987610E-20   4.03989869661231E-16
      9.38642865394575E-16  -5.00000000000000E-01  -5.00000000000000E-01   0.00000000000000E+00   0.00000000000000E+00
      0.00000000000000E+00   0.00000000000000E+00   0.00000000000000E+00  -3.56642813582745E-16
      1.28669128358701E-01
      0.00000000000000E+00   0.00000000000000E+00   0.00000000000000E+00   0.00000000000000E+00  -4.47208260546351E-16
     -1.15808544108242E-19  -4.47324069090460E-16   6.68555437969613E-16   1.28669128358701E-01   1.28669128358701E-01
      0.00000000000000E+00   0.00000000000000E+00   4.49978242798532E-16   3.70781239079646E-20   4.50015320922440E-16
      9.49289978641704E-16  -5.00000000000000E-01  -5.00000000000000E-01   0.00000000000000E+00   0.00000000000000E+00
      0.00000000000000E+00   0.00000000000000E+00   0.00000000000000E+00  -3.61492340462232E-16
      1.52541456766199E-01
      0.00000000000000E+00   0.00000000000000E+00   0.00000000000000E+00   0.00000000000000E+00  -4.84824403953589E-16
     -1.29280617704400E-19  -4.84953684571293E-16   6.67479935229515E-16   1.52541456766199E-01   1.52541456766199E-01
      0.00000000000000E+00   0.00000000000000E+00   4.86129593647712E-16   3.77640562816841E-20   4.86167357703993E-16
      9.61797109875205E-16  -5.00000000000000E-01  -5.00000000000000E-01   0.00000000000000E+00   0.00000000000000E+00
      0.00000000000000E+00   0.00000000000000E+00   0.00000000000000E+00  -3.66479689312172E-16
      1.80551655430996E-01
      0.00000000000000E+00   0.00000000000000E+00   0.00000000000000E+00   0.00000000000000E+00  -5.24713815503246E-16
     -1.41800971217860E-19  -5.24855616474464E-16   6.66554115267786E-16   1.80551655430996E-01   1.80551655430996E-01
      0.00000000000000E+00   0.00000000000000E+00   5.24071167857010E-16   3.81428739722981E-20   5.24109310730982E-16
      9.76308746356245E-16  -5.00000000000000E-01  -5.00000000000000E-01   0.00000000000000E+00   0.00000000000000E+00
      0.00000000000000E+00   0.00000000000000E+00   0.00000000000000E+00  -3.71652999961151E-16
      2.13416955197692E-01
      0.00000000000000E+00   0.00000000000000E+00   0.00000000000000E+00   0.00000000000000E+00  -5.52772960611458E-16
     -1.52754207570299E-19  -5.52925714819028E-16   6.65794706872239E-16   2.13416955197692E-01   2.13416955197692E-01
      0.00000000000000E+00   0.00000000000000E+00   5.54308673572434E-16   3.83504944015083E-20   5.54347024066836E-16
      9.92963987031402E-16  -5.00000000000000E-01  -5.00000000000000E-01   0.00000000000000E+00   0.00000000000000E+00
      0.00000000000000E+00   0.00000000000000E+00   0.00000000000000E+00  -3.77074016943016E-16
      2.51978906923948E-01
      0.00000000000000E+00   0.00000000000000E+00   0.00000000000000E+00   0.00000000000000E+00  -5.74959666618500E-16
     -1.61564094226638E-19  -5.75121230712727E-16   6.65214359476248E-16   2.51978906923948E-01   2.51978906923948E-01
      0.00000000000000E+00   0.00000000000000E+00   5.73648077931543E-16   3.84827977975513E-20   5.73686560729341E-16
      1.01195575252134E-15  -5.00000000000000E-01  -5.00000000000000E-01   0.00000000000000E+00   0.00000000000000E+00
      0.00000000000000E+00   0.00000000000000E+00   0.00000000000000E+00  -3.82834603808247E-16
      2.97224930282756E-01
      0.00000000000000E+00   0.00000000000000E+00   0.00000000000000E+00   0.00000000000000E+00  -5.96269852810332E-16
     -1.68093775942719E-19  -5.96437946586275E-16   6.64800225963355E-16   2.97224930282756E-01   2.97224930282756E-01
      0.00000000000000E+00   0.00000000000000E+00   5.97170856086646E-16   3.85926503283744E-20   5.97209448736975E-16
      1.03360977161331E-15  -5.00000000000000E-01  -5.00000000000000E-01   0.00000000000000E+00   0.00000000000000E+00
      0.00000000000000E+00   0.00000000000000E+00   0.00000000000000E+00  -3.89106589611564E-16
      3.49710317378972E-01
      0.00000000000000E+00   0.00000000000000E+00   0.00000000000000E+00   0.00000000000000E+00  -6.00958687604410E-16
     -1.72917750819279E-19  -6.01131605355229E-16   6.64502453977531E-16   3.49710317378972E-01   3.49710317378972E-01
      0.00000000000000E+00   0.00000000000000E+00   6.05886235693504E-16   3.87025180729491E-20   6.05924938211577E-16
      1.05813015320928E-15  -5.00000000000000E-01  -5.00000000000000E-01   0.00000000000000E+00   0.00000000000000E+00
      0.00000000000000E+00   0.00000000000000E+00   0.00000000000000E+00  -3.96098562835021E-16
      4.10593366410584E-01
      0.00000000000000E+00   0.00000000000000E+00   0.00000000000000E+00   0.00000000000000E+00  -6.13569346638995E-16
     -1.77275812270144E-19  -6.13746622451265E-16   6.64239122273463E-16   4.10593366410584E-01   4.10593366410584E-01
      0.00000000000000E+00   0.00000000000000E+00   6.13577132557241E-16   3.88214408058868E-20   6.13615953998047E-16
      1.08603036032538E-15  -5.00000000000000E-01  -5.00000000000000E-01   0.00000000000000E+00   0.00000000000000E+00
      0.00000000000000E+00   0.00000000000000E+00   0.00000000000000E+00  -4.04174627902847E-16
      4.81217703287253E-01
      0.00000000000000E+00   0.00000000000000E+00   0.00000000000000E+00   0.00000000000000E+00  -6.27915196135764E-16
     -1.81429975401469E-19  -6.28096626111165E-16   6.63992921019018E-16   4.81217703287253E-01   4.81217703287253E-01
      0.00000000000000E+00   0.00000000000000E+00   6.34015863384788E-16   3.89529926473487E-20   6.34054816377435E-16
      1.11790631621896E-15  -5.00000000000000E-01  -5.00000000000000E-01   0.00000000000000E+00   0.00000000000000E+00
      0.00000000000000E+00   0.00000000000000E+00   0.00000000000000E+00  -4.13621450636105E-16
      5.63141934064189E-01
      0.00000000000000E+00   0.00000000000000E+00   0.00000000000000E+00   0.00000000000000E+00  -6.32263836310166E-16
     -1.84338527775702E-19  -6.32448174837941E-16   6.63823203291772E-16   5.63141934064189E-01   5.63141934064189E-01
      0.00000000000000E+00   0.00000000000000E+00   6.33382237798659E-16   3.90992026307749E-20   6.33421337001290E-16
      1.15442754924174E-15  -5.00000000000000E-01  -5.00000000000000E-01   0.00000000000000E+00   0.00000000000000E+00
      0.00000000000000E+00   0.00000000000000E+00   0.00000000000000E+00  -4.24639779044609E-16
      6.58174041765435E-01
      0.00000000000000E+00   0.00000000000000E+00   0.00000000000000E+00   0.00000000000000E+00  -6.44087595740536E-16
     -1.88975360290430E-19  -6.44276571100826E-16   6.63557122139658E-16   6.58174041765435E-01   6.58174041765435E-01
      0.00000000000000E+00   0.00000000000000E+00   6.53241123306717E-16   3.92604291109070E-20   6.53280383735828E-16
      1.19617156205655E-15  -5.00000000000000E-01  -5.00000000000000E-01   0.00000000000000E+00   0.00000000000000E+00
      0.00000000000000E+00   0.00000000000000E+00   0.00000000000000E+00  -4.37933322337232E-16
      7.69678381468230E-01
      0.00000000000000E+00   0.00000000000000E+00   0.00000000000000E+00   0.00000000000000E+00  -6.99634549723006E-16
     -2.10379908229303E-19  -6.99844929631235E-16   6.62394716953282E-16   7.69678381468230E-01   7.69678381468230E-01
      0.00000000000000E+00   0.00000000000000E+00   6.98987522695909E-16   3.94361399570850E-20   6.99026958835866E-16
      1.24401109656175E-15  -5.00000000000000E-01  -5.00000000000000E-01   0.00000000000000E+00   0.00000000000000E+00
      0.00000000000000E+00   0.00000000000000E+00   0.00000000000000E+00  -4.55550826865401E-16
      8.99023415523473E-01
      0.00000000000000E+00   0.00000000000000E+00   0.00000000000000E+00   0.00000000000000E+00  -8.21275296524775E-16
     -2.62345718674348E-19  -8.21537642243449E-16   6.59938682313725E-16   8.99023415523473E-01   8.99023415523473E-01
      0.00000000000000E+00   0.00000000000000E+00   8.16911097122226E-16   3.96236422671542E-20   8.16950720764493E-16
      1.29820911449850E-15  -5.00000000000000E-01  -5.00000000000000E-01   0.00000000000000E+00   0.00000000000000E+00
      0.00000000000000E+00   0.00000000000000E+00   0.00000000000000E+00  -4.78370492804529E-16
      1.00000000000000E+00
      0.00000000000000E+00   0.00000000000000E+00   0.00000000000000E+00   0.00000000000000E+00  -8.59748827969700E-16
     -2.81679978428669E-19  -8.60030507948128E-16   6.59130303555571E-16   1.00000000000000E+00   1.00000000000000E+00
      0.00000000000000E+00   0.00000000000000E+00   8.61628607974129E-16   3.97642574301632E-20   8.61668372231560E-16
      1.34073677520484E-15  -5.00000000000000E-01  -5.00000000000000E-01   0.00000000000000E+00   0.00000000000000E+00
      0.00000000000000E+00   0.00000000000000E+00   0.00000000000000E+00  -4.94243297941512E-16
      0.00000000000000E+00
      0.00000000000000E+00   0.00000000000000E+00   0.00000000000000E+00   0.00000000000000E+00  -8.63276316532537E-16
     -2.81679981470037E-19  -8.63557996514007E-16   6.59130303432271E-16   1.00000000000000E+00   1.00000000000000E+00
      0.00000000000000E+00   0.00000000000000E+00   8.57087356856603E-16   3.97642574298233E-20   8.57127121114033E-16
      1.34073677514715E-15  -5.00000000000000E-01  -5.00000000000000E-01   0.00000000000000E+00   0.00000000000000E+00
      0.00000000000000E+00   0.00000000000000E+00   0.00000000000000E+00  -4.94243298176959E-16
      1.00000000000000E-03
      0.00000000000000E+00   0.00000000000000E+00   0.00000000000000E+00   0.00000000000000E+00  -8.61729363200617E-16
     -2.81644864447558E-19  -8.62011008065065E-16   6.59106126293938E-16   1.00000000000000E+00   1.00000000000000E+00
      0.00000000000000E+00   0.00000000000000E+00   8.58601437658587E-16   3.97642528597776E-20   8.58641201911447E-16
      1.34045201710507E-15  -4.98000000000000E-01  -4.98000000000000E-01   0.00000000000000E+00   0.00000000000000E+00
      0.00000000000000E+00   0.00000000000000E+00   0.00000000000000E+00  -4.92091046846079E-16
      2.17333333333333E-03
      0.00000000000000E+00   0.00000000000000E+00   0.00000000000000E+00   0.00000000000000E+00  -8.63199383283294E-16
     -2.81603165265984E-19  -8.63480986448560E-16   6.59077669069476E-16   1.00000000000000E+00   1.00000000000000E+00
      0.00000000000000E+00   0.00000000000000E+00   8.66927543736217E-16   3.97642475438906E-20   8.66967307983761E-16
      1.34011777871123E-15  -4.95653333333333E-01  -4.95653333333333E-01   0.00000000000000E+00   0.00000000000000E+00
      0.00000000000000E+00   0.00000000000000E+00   0.00000000000000E+00  -4.89566413733118E-16
      3.58133333333333E-03
      0.00000000000000E+00   0.00000000000000E+00   0.00000000000000E+00   0.00000000000000E+00  -8.63652744338763E-16
     -2.81552718091821E-19  -8.63934297056855E-16   6.59043379403670E-16   1.00000000000000E+00   1.00000000000000E+00
      0.00000000000000E+00   0.00000000000000E+00   8.64278963232793E-16   3.97642411978221E-20   8.64318727473991E-16
      1.33971651482253E-15  -4.92837333333333E-01  -4.92837333333333E-01   0.00000000000000E+00   0.00000000000000E+00
      0.00000000000000E+00   0.00000000000000E+00   0.00000000000000E+00  -4.86537838104689E-16
      5.27093333333333E-03
      0.00000000000000E+00   0.00000000000000E+00   0.00000000000000E+00   0.00000000000000E+00  -8.60567827774907E-16
     -2.81491399736521E-19  -8.60849319174644E-16   6.59002033964524E-16   1.00000000000000E+00   1.00000000000000E+00
      0.00000000000000E+00   0.00000000000000E+00   8.65414910581478E-16   3.97642336520406E-20   8.65454674815131E-16
      1.33923475195357E-15  -4.89458133333333E-01  -4.89458133333333E-01   0.00000000000000E+00   0.00000000000000E+00
      0.00000000000000E+00   0.00000000000000E+00   0.00000000000000E+00  -4.82904949969600E-16
      7.29845333333333E-03
      0.00000000000000E+00   0.00000000000000E+00   0.00000000000000E+00   0.00000000000000E+00  -8.57469817247925E-16
     -2.81417146515989E-19  -8.57751234394441E-16   6.58952111408859E-16   1.00000000000000E+00   1.00000000000000E+00
      0.00000000000000E+00   0.00000000000000E+00   8.59360447851389E-16   3.97642246470175E-20   8.59400212076036E-16
      1.33865628050405E-15  -4.85403093333333E-01  -4.85403093333333E-01   0.00000000000000E+00   0.00000000000000E+00
      0.00000000000000E+00   0.00000000000000E+00   0.00000000000000E+00  -4.78547539307537E-16
      9.70444373333333E-03
      0.00000000000000E+00   0.00000000000000E+00   0.00000000000000E+00   0.00000000000000E+00  -8.58387450735109E-16
     -2.81327056129555E-19  -8.58668777791238E-16   6.58892467515701E-16   1.00000000000000E+00   1.00000000000000E+00
      0.00000000000000E+00   0.00000000000000E+00   8.65416455584511E-16   3.97642141471836E-20   8.65456219798658E-16
      1.33796936145110E-15  -4.80591112533333E-01  -4.80591112533333E-01   0.00000000000000E+00   0.00000000000000E+00
      0.00000000000000E+00   0.00000000000000E+00   0.00000000000000E+00  -4.73379582247581E-16
      1.25595523413333E-02
      0.00000000000000E+00   0.00000000000000E+00   0.00000000000000E+00   0.00000000000000E+00  -8.60293773942532E-16
     -2.81217823026687E-19  -8.60574991765559E-16   6.58821090831761E-16   1.00000000000000E+00   1.00000000000000E+00
      0.00000000000000E+00   0.00000000000000E+00   8.62011349566884E-16   3.97642018998373E-20   8.62051113768784E-16
      1.33715357248445E-15  -4.74880895317333E-01  -4.74880895317333E-01   0.00000000000000E+00   0.00000000000000E+00
      0.00000000000000E+00   0.00000000000000E+00   0.00000000000000E+00  -4.67250982430083E-16
      1.59476145561600E-02
      0.00000000000000E+00   0.00000000000000E+00   0.00000000000000E+00   0.00000000000000E+00  -8.64192039304314E-16
     -2.81084811103414E-19  -8.64473124115418E-16   6.58735527157604E-16   1.00000000000000E+00   1.00000000000000E+00
      0.00000000000000E+00   0.00000000000000E+00   8.62012455007732E-16   3.97641876803275E-20   8.62052219195412E-16
      1.33618463070857E-15  -4.68104770887680E-01  -4.68104770887680E-01   0.00000000000000E+00   0.00000000000000E+00
      0.00000000000000E+00   0.00000000000000E+00   0.00000000000000E+00  -4.59984094048444E-16
      1.99681150510876E-02
      0.00000000000000E+00   0.00000000000000E+00   0.00000000000000E+00   0.00000000000000E+00  -8.63021413959263E-16
     -2.80922007797733E-19  -8.63302335967061E-16   6.58632741879721E-16   1.00000000000000E+00   1.00000000000000E+00
      0.00000000000000E+00   0.00000000000000E+00   8.62392200900872E-16   3.97641712732371E-20   8.62431965072145E-16
      1.33503364582291E-15  -4.60063769897825E-01  -4.60063769897825E-01   0.00000000000000E+00   0.00000000000000E+00
      0.00000000000000E+00   0.00000000000000E+00   0.00000000000000E+00  -4.51368829626755E-16
      2.47391089717351E-02
      0.00000000000000E+00   0.00000000000000E+00   0.00000000000000E+00   0.00000000000000E+00  -8.58286092982616E-16
     -2.80721469713238E-19  -8.58566814452329E-16   6.58508951899363E-16   1.00000000000000E+00   1.00000000000000E+00
      0.00000000000000E+00   0.00000000000000E+00   8.60879782109463E-16   3.97641525053524E-20   8.60919546261968E-16
      1.33366623743808E-15  -4.50521782056530E-01  -4.50521782056530E-01   0.00000000000000E+00   0.00000000000000E+00
      0.00000000000000E+00   0.00000000000000E+00   0.00000000000000E+00  -4.41156936707084E-16
      3.04006884242368E-02
      0.00000000000000E+00   0.00000000000000E+00   0.00000000000000E+00   0.00000000000000E+00  -8.65093636348721E-16
     -2.80472543227683E-19  -8.65374108891949E-16   6.58359391112296E-16   1.00000000000000E+00   1.00000000000000E+00
      0.00000000000000E+00   0.00000000000000E+00   8.55961160315124E-16   3.97641312976291E-20   8.56000924446422E-16
      1.33204147816331E-15  -4.39198623151526E-01  -4.39198623151526E-01   0.00000000000000E+00   0.00000000000000E+00
      0.00000000000000E+00   0.00000000000000E+00   0.00000000000000E+00  -4.29055388911692E-16
      3.71190960412054E-02
      0.00000000000000E+00   0.00000000000000E+00   0.00000000000000E+00   0.00000000000000E+00  -8.58739066808472E-16
     -2.80160574552138E-19  -8.59019227383024E-16   6.58177981503768E-16   1.00000000000000E+00   1.00000000000000E+00
      0.00000000000000E+00   0.00000000000000E+00   8.68074504556435E-16   3.97641077665463E-20   8.68114268664202E-16
      1.33011062742961E-15  -4.25761807917589E-01  -4.25761807917589E-01   0.00000000000000E+00   0.00000000000000E+00
      0.00000000000000E+00   0.00000000000000E+00   0.00000000000000E+00  -4.14718832897765E-16
      4.50916064133415E-02
      0.00000000000000E+00   0.00000000000000E+00   0.00000000000000E+00   0.00000000000000E+00  -8.61379861949086E-16
     -2.79765021519744E-19  -8.61659626970605E-16   6.57956847958356E-16   1.00000000000000E+00   1.00000000000000E+00
      0.00000000000000E+00   0.00000000000000E+00   8.59749614197606E-16   3.97640823825822E-20   8.59789378279989E-16
      1.32781560155232E-15  -4.09816787173317E-01  -4.09816787173317E-01   0.00000000000000E+00   0.00000000000000E+00
      0.00000000000000E+00   0.00000000000000E+00   0.00000000000000E+00  -3.97741137446529E-16
      5.45523187216097E-02
      0.00000000000000E+00   0.00000000000000E+00   0.00000000000000E+00   0.00000000000000E+00  -8.63414382049918E-16
     -2.79255942335563E-19  -8.63693637992253E-16   6.57685606577655E-16   1.00000000000000E+00   1.00000000000000E+00