DF-ISE text

Info {
  version   = 1.0
  type      = xyplot
  datasets  = [
    "time"
    "S OuterVoltage" "S InnerVoltage" "S QuasiFermiPotential" "S DisplacementCurrent" "S eCurrent"
    "S hCurrent" "S TotalCurrent" "S Charge" "D OuterVoltage" "D InnerVoltage"
    "D QuasiFermiPotential" "D DisplacementCurrent" "D eCurrent" "D hCurrent" "D TotalCurrent"
    "D Charge" "G OuterVoltage" "G InnerVoltage" "G QuasiFermiPotential" "G DisplacementCurrent"
    "G eCurrent" "G hCurrent" "G TotalCurrent" "G Charge" ]
  functions = [
    Time
    OuterVoltage InnerVoltage QuasiFermiPotential DisplacementCurrent eCurrent
    hCurrent TotalCurrent Charge OuterVoltage InnerVoltage
    QuasiFermiPotential DisplacementCurrent eCurrent hCurrent TotalCurrent
    Charge OuterVoltage InnerVoltage QuasiFermiPotential DisplacementCurrent
    eCurrent hCurrent TotalCurrent Charge ]
}

Data {
      0.00000000000000E+00
      0.00000000000000E+00   0.00000000000000E+00   0.00000000000000E+00   0.00000000000000E+00   1.98547657979861E-19
      7.16364143123223E-35   1.98547657979861E-19   5.16758144192027E-16   0.00000000000000E+00   0.00000000000000E+00
      0.00000000000000E+00   0.00000000000000E+00   1.31711472494389E-18   1.53746470708208E-35   1.31711472494389E-18
      7.37278813919118E-16  -5.00000000000000E-01  -5.00000000000000E-01   0.00000000000000E+00   0.00000000000000E+00
      0.00000000000000E+00   0.00000000000000E+00   0.00000000000000E+00  -4.76658692932427E-16
      0.00000000000000E+00
      0.00000000000000E+00   0.00000000000000E+00   0.00000000000000E+00   0.00000000000000E+00  -1.09657415076107E-17
     -6.04409751064088E-35  -1.09657415076107E-17   5.16758144196175E-16   0.00000000000000E+00   0.00000000000000E+00
      0.00000000000000E+00   0.00000000000000E+00   6.43018366099192E-18  -2.47530058346619E-35   6.43018366099192E-18
      7.37278813923288E-16  -5.00000000000000E-01  -5.00000000000000E-01   0.00000000000000E+00   0.00000000000000E+00
      0.00000000000000E+00   0.00000000000000E+00   0.00000000000000E+00  -4.76658692932427E-16
      1.00000000000000E-03
      0.00000000000000E+00   0.00000000000000E+00   0.00000000000000E+00   0.00000000000000E+00  -1.40124084211634E-06
     -4.81426987198220E-24  -1.40124084211634E-06   5.16555836698465E-16   1.00000000000000E-03   1.00000000000000E-03
      0.00000000000000E+00   0.00000000000000E+00   1.40124084211118E-06   2.29494322121045E-22   1.40124084211118E-06
      7.37670041974918E-16  -5.00000000000000E-01  -5.00000000000000E-01   0.00000000000000E+00   0.00000000000000E+00
      0.00000000000000E+00   0.00000000000000E+00   0.00000000000000E+00  -4.76860147842910E-16
      2.17333333333333E-03
      0.00000000000000E+00   0.00000000000000E+00   0.00000000000000E+00   0.00000000000000E+00  -2.97523297263878E-06
     -1.03120003671122E-23  -2.97523297263878E-06   5.16318844864179E-16   2.17333333333333E-03   2.17333333333333E-03
      0.00000000000000E+00   0.00000000000000E+00   2.97523297263624E-06   4.88013995040546E-22   2.97523297263624E-06
      7.38129671607254E-16  -5.00000000000000E-01  -5.00000000000000E-01   0.00000000000000E+00   0.00000000000000E+00
      0.00000000000000E+00   0.00000000000000E+00   0.00000000000000E+00  -4.77096293882996E-16
      3.56568888888889E-03
      0.00000000000000E+00   0.00000000000000E+00   0.00000000000000E+00   0.00000000000000E+00  -4.74451489006808E-06
     -1.66268711192904E-23  -4.74451489006808E-06   5.16038179483619E-16   3.56568888888889E-03   3.56568888888889E-03
      0.00000000000000E+00   0.00000000000000E+00   4.74451489005424E-06   7.80312748174963E-22   4.74451489005424E-06
      7.38675933517848E-16  -5.00000000000000E-01  -5.00000000000000E-01   0.00000000000000E+00   0.00000000000000E+00
      0.00000000000000E+00   0.00000000000000E+00   0.00000000000000E+00  -4.77376205402479E-16
      5.21795081481481E-03
      0.00000000000000E+00   0.00000000000000E+00   0.00000000000000E+00   0.00000000000000E+00  -6.71238127342311E-06
     -2.38404311729159E-23  -6.71238127342311E-06   5.15705983984011E-16   5.21795081481481E-03   5.21795081481481E-03
      0.00000000000000E+00   0.00000000000000E+00   6.71238127342083E-06   1.10774548263513E-21   6.71238127342083E-06
      7.39325339289155E-16  -5.00000000000000E-01  -5.00000000000000E-01   0.00000000000000E+00   0.00000000000000E+00
      0.00000000000000E+00   0.00000000000000E+00   0.00000000000000E+00  -4.77707942088519E-16
      7.17863496691358E-03
      0.00000000000000E+00   0.00000000000000E+00   0.00000000000000E+00   0.00000000000000E+00  -8.87720676227665E-06
     -3.20306450207131E-23  -8.87720676227665E-06   5.15313101621824E-16   7.17863496691358E-03   7.17863496691358E-03
      0.00000000000000E+00   0.00000000000000E+00   8.87720676226670E-06   1.47048634042035E-21   8.87720676226670E-06
      7.40097618071846E-16  -5.00000000000000E-01  -5.00000000000000E-01   0.00000000000000E+00   0.00000000000000E+00
      0.00000000000000E+00   0.00000000000000E+00   0.00000000000000E+00  -4.78101035314035E-16
      9.50531349407078E-03
      0.00000000000000E+00   0.00000000000000E+00   0.00000000000000E+00   0.00000000000000E+00  -1.12318475313348E-05
     -4.12714004976805E-23  -1.12318475313348E-05   5.14848915980695E-16   9.50531349407078E-03   9.50531349407078E-03
      0.00000000000000E+00   0.00000000000000E+00   1.12318475313271E-05   1.86704405710489E-21   1.12318475313271E-05
      7.41016380645519E-16  -5.00000000000000E-01  -5.00000000000000E-01   0.00000000000000E+00   0.00000000000000E+00
      0.00000000000000E+00   0.00000000000000E+00   0.00000000000000E+00  -4.78566759905451E-16
      1.22663053462973E-02
      0.00000000000000E+00   0.00000000000000E+00   0.00000000000000E+00   0.00000000000000E+00  -1.37640847834775E-05
     -5.16281973269537E-23  -1.37640847834775E-05   5.14301199885599E-16   1.22663053462973E-02   1.22663053462973E-02
      0.00000000000000E+00   0.00000000000000E+00   1.37640847834464E-05   2.29374024283372E-21   1.37640847834464E-05
      7.42109943234817E-16  -5.00000000000000E-01  -5.00000000000000E-01   0.00000000000000E+00   0.00000000000000E+00
      0.00000000000000E+00   0.00000000000000E+00   0.00000000000000E+00  -4.79118449401960E-16
      1.55426823442728E-02
      0.00000000000000E+00   0.00000000000000E+00   0.00000000000000E+00   0.00000000000000E+00  -1.64586935650246E-05
     -6.31558937146154E-23  -1.64586935650246E-05   5.13655985543111E-16   1.55426823442728E-02   1.55426823442728E-02
      0.00000000000000E+00   0.00000000000000E+00   1.64586935650347E-05   2.74421190852504E-21   1.64586935650347E-05
      7.43412362128468E-16  -5.00000000000000E-01  -5.00000000000000E-01   0.00000000000000E+00   0.00000000000000E+00
      0.00000000000000E+00   0.00000000000000E+00   0.00000000000000E+00  -4.79771871636131E-16
      1.94306497152037E-02
      0.00000000000000E+00   0.00000000000000E+00   0.00000000000000E+00   0.00000000000000E+00  -1.93020692113164E-05
     -7.58956907957697E-23  -1.93020692113164E-05   5.12897472918066E-16   1.94306497152037E-02   1.94306497152037E-02
      0.00000000000000E+00   0.00000000000000E+00   1.93020692113193E-05   3.20904845028942E-21   1.93020692113193E-05
      7.44964752509836E-16  -5.00000000000000E-01  -5.00000000000000E-01   0.00000000000000E+00   0.00000000000000E+00
      0.00000000000000E+00   0.00000000000000E+00   0.00000000000000E+00  -4.80545669875099E-16
      2.40443709953751E-02
      0.00000000000000E+00   0.00000000000000E+00   0.00000000000000E+00   0.00000000000000E+00  -2.22906945033282E-05
     -8.98608106277090E-23  -2.22906945033282E-05   5.12007991704808E-16   2.40443709953751E-02   2.40443709953751E-02
      0.00000000000000E+00   0.00000000000000E+00   2.22906945033186E-05   3.67571773271469E-21   2.22906945033186E-05
      7.46816993256440E-16  -5.00000000000000E-01  -5.00000000000000E-01   0.00000000000000E+00   0.00000000000000E+00
      0.00000000000000E+00   0.00000000000000E+00   0.00000000000000E+00  -4.81461864838667E-16
      2.95193202478451E-02
      0.00000000000000E+00   0.00000000000000E+00   0.00000000000000E+00   0.00000000000000E+00  -2.54448258836947E-05
     -1.05042809534861E-22  -2.54448258836947E-05   5.10968007246068E-16   2.95193202478451E-02   2.95193202478451E-02
      0.00000000000000E+00   0.00000000000000E+00   2.54448258836889E-05   4.12894468678090E-21   2.54448258836889E-05
      7.49029938411106E-16  -5.00000000000000E-01  -5.00000000000000E-01   0.00000000000000E+00   0.00000000000000E+00
      0.00000000000000E+00   0.00000000000000E+00   0.00000000000000E+00  -4.82546474531365E-16
      3.60162600274429E-02
      0.00000000000000E+00   0.00000000000000E+00   0.00000000000000E+00   0.00000000000000E+00  -2.88278937459308E-05
     -1.21394166074754E-22  -2.88278937459308E-05   5.09756119204094E-16   3.60162600274429E-02   3.60162600274429E-02
      0.00000000000000E+00   0.00000000000000E+00   2.88278937459534E-05   4.55172702946697E-21   2.88278937459534E-05
      7.51678256414906E-16  -5.00000000000000E-01  -5.00000000000000E-01   0.00000000000000E+00   0.00000000000000E+00
      0.00000000000000E+00   0.00000000000000E+00   0.00000000000000E+00  -4.83830200078165E-16
      4.37259618992322E-02
      0.00000000000000E+00   0.00000000000000E+00   0.00000000000000E+00   0.00000000000000E+00  -3.25695369838987E-05
     -1.38942439156353E-22  -3.25695369838987E-05   5.08348894679004E-16   4.37259618992322E-02   4.37259618992322E-02
      0.00000000000000E+00   0.00000000000000E+00   3.25695369839111E-05   4.92702510622248E-21   3.25695369839111E-05
      7.54853907550285E-16  -5.00000000000000E-01  -5.00000000000000E-01   0.00000000000000E+00   0.00000000000000E+00
      0.00000000000000E+00   0.00000000000000E+00   0.00000000000000E+00  -4.85349407358690E-16
      5.27720120954650E-02
      0.00000000000000E+00   0.00000000000000E+00   0.00000000000000E+00   0.00000000000000E+00  -3.68379598393598E-05
     -1.57978264470343E-22  -3.68379598393598E-05   5.06738427319347E-16   5.27720120954650E-02   5.27720120954650E-02
      0.00000000000000E+00   0.00000000000000E+00   3.68379598393651E-05   5.23717428958410E-21   3.68379598393651E-05
      7.58626946753567E-16  -5.00000000000000E-01  -5.00000000000000E-01   0.00000000000000E+00   0.00000000000000E+00
      0.00000000000000E+00   0.00000000000000E+00   0.00000000000000E+00  -4.87127434079679E-16
      6.33860443257115E-02
      0.00000000000000E+00   0.00000000000000E+00   0.00000000000000E+00   0.00000000000000E+00  -4.19254613140411E-05
     -1.80151489794135E-22  -4.19254613140411E-05   5.04900232092460E-16   6.33860443257115E-02   6.33860443257115E-02
      0.00000000000000E+00   0.00000000000000E+00   4.19254613140456E-05   5.47488910367357E-21   4.19254613140456E-05
      7.63118399163258E-16  -5.00000000000000E-01  -5.00000000000000E-01   0.00000000000000E+00   0.00000000000000E+00
      0.00000000000000E+00   0.00000000000000E+00   0.00000000000000E+00  -4.89209879534525E-16
      7.58398421425341E-02
      0.00000000000000E+00   0.00000000000000E+00   0.00000000000000E+00   0.00000000000000E+00  -4.82158894542091E-05
     -2.08629232201249E-22  -4.82158894542091E-05   5.02806961235080E-16   7.58398421425341E-02   7.58398421425341E-02
      0.00000000000000E+00   0.00000000000000E+00   4.82158894542179E-05   5.63955730787551E-21   4.82158894542179E-05
      7.68474525845660E-16  -5.00000000000000E-01  -5.00000000000000E-01   0.00000000000000E+00   0.00000000000000E+00
      0.00000000000000E+00   0.00000000000000E+00   0.00000000000000E+00  -4.91651232144122E-16
      9.04522982476059E-02
      0.00000000000000E+00   0.00000000000000E+00   0.00000000000000E+00   0.00000000000000E+00  -5.62288742303056E-05
     -2.47905960845941E-22  -5.62288742303056E-05   5.00429048301501E-16   9.04522982476059E-02   9.04522982476059E-02
      0.00000000000000E+00   0.00000000000000E+00   5.62288742303088E-05   5.73847437338715E-21   5.62288742303088E-05
      7.74873595817683E-16  -5.00000000000000E-01  -5.00000000000000E-01   0.00000000000000E+00   0.00000000000000E+00
      0.00000000000000E+00   0.00000000000000E+00   0.00000000000000E+00  -4.94515305531684E-16
      1.07597580077557E-01
      0.00000000000000E+00   0.00000000000000E+00   0.00000000000000E+00   0.00000000000000E+00  -6.66895752818366E-05
     -3.04029994928944E-22  -6.66895752818366E-05   4.97735770625046E-16   1.07597580077557E-01   1.07597580077557E-01
      0.00000000000000E+00   0.00000000000000E+00   6.66895752818281E-05   5.78767102006685E-21   6.66895752818281E-05
      7.82534873164295E-16  -5.00000000000000E-01  -5.00000000000000E-01   0.00000000000000E+00   0.00000000000000E+00
      0.00000000000000E+00   0.00000000000000E+00   0.00000000000000E+00  -4.97876115434729E-16
      1.27714710758033E-01
      0.00000000000000E+00   0.00000000000000E+00   0.00000000000000E+00   0.00000000000000E+00  -8.05348095480351E-05
     -3.85505968967345E-22  -8.05348095480351E-05   4.94696883142617E-16   1.27714710758033E-01   1.27714710758033E-01
      0.00000000000000E+00   0.00000000000000E+00   8.05348095480331E-05   5.80698602139189E-21   8.05348095480331E-05
      7.91725785121362E-16  -5.00000000000000E-01  -5.00000000000000E-01   0.00000000000000E+00   0.00000000000000E+00
      0.00000000000000E+00   0.00000000000000E+00   0.00000000000000E+00  -5.01819337511944E-16
      1.51318810756457E-01
      0.00000000000000E+00   0.00000000000000E+00   0.00000000000000E+00   0.00000000000000E+00  -9.88798981468229E-05
     -5.07138290842926E-22  -9.88798981468229E-05   4.91285077136717E-16   1.51318810756457E-01   1.51318810756457E-01
      0.00000000000000E+00   0.00000000000000E+00   9.88798981468277E-05   5.81040229095989E-21   9.88798981468277E-05
      8.02766853732633E-16  -5.00000000000000E-01  -5.00000000000000E-01   0.00000000000000E+00   0.00000000000000E+00
      0.00000000000000E+00   0.00000000000000E+00   0.00000000000000E+00  -5.06446734109222E-16
      1.79014288087943E-01
      0.00000000000000E+00   0.00000000000000E+00   0.00000000000000E+00   0.00000000000000E+00  -1.23188042360705E-04
     -7.08649061371489E-22  -1.23188042360705E-04   4.87475760286839E-16   1.79014288087943E-01   1.79014288087943E-01
      0.00000000000000E+00   0.00000000000000E+00   1.23188042360685E-04   5.81701880219637E-21   1.23188042360685E-04
      8.16045002118557E-16  -5.00000000000000E-01  -5.00000000000000E-01   0.00000000000000E+00   0.00000000000000E+00
      0.00000000000000E+00   0.00000000000000E+00   0.00000000000000E+00  -5.11896433536780E-16
      2.11510314823552E-01
      0.00000000000000E+00   0.00000000000000E+00   0.00000000000000E+00   0.00000000000000E+00  -1.55480693898257E-04
     -1.07870141878222E-21  -1.55480693898257E-04   4.83245126554519E-16   2.11510314823552E-01   2.11510314823552E-01
      0.00000000000000E+00   0.00000000000000E+00   1.55480693898253E-04   5.84825146876353E-21   1.55480693898253E-04
      8.32033519628428E-16  -5.00000000000000E-01  -5.00000000000000E-01   0.00000000000000E+00   0.00000000000000E+00
      0.00000000000000E+00   0.00000000000000E+00   0.00000000000000E+00  -5.18360816664031E-16
      2.49638986193334E-01
      0.00000000000000E+00   0.00000000000000E+00   0.00000000000000E+00   0.00000000000000E+00  -1.98414333713078E-04
     -1.80339817279175E-21  -1.98414333713078E-04   4.78567071562407E-16   2.49638986193334E-01   2.49638986193334E-01
      0.00000000000000E+00   0.00000000000000E+00   1.98414333713072E-04   5.90769436257446E-21   1.98414333713072E-04
      8.51320784482176E-16  -5.00000000000000E-01  -5.00000000000000E-01   0.00000000000000E+00   0.00000000000000E+00
      0.00000000000000E+00   0.00000000000000E+00   0.00000000000000E+00  -5.26110514216253E-16
      2.93868244982280E-01
      0.00000000000000E+00   0.00000000000000E+00   0.00000000000000E+00   0.00000000000000E+00  -2.54560101915606E-04
     -3.32351107485357E-21  -2.54560101915606E-04   4.73460553100125E-16   2.93868244982280E-01   2.93868244982280E-01
      0.00000000000000E+00   0.00000000000000E+00   2.54560101915606E-04   5.98583642659405E-21   2.54560101915606E-04
      8.74391924729900E-16  -5.00000000000000E-01  -5.00000000000000E-01   0.00000000000000E+00   0.00000000000000E+00
      0.00000000000000E+00   0.00000000000000E+00   0.00000000000000E+00  -5.35474159271800E-16
      3.45174185177458E-01
      0.00000000000000E+00   0.00000000000000E+00   0.00000000000000E+00   0.00000000000000E+00  -3.27169441874043E-04
     -6.90908699610203E-21  -3.27169441874043E-04   4.67864762018926E-16   3.45174185177458E-01   3.45174185177458E-01
      0.00000000000000E+00   0.00000000000000E+00   3.27169441874042E-04   6.07894566212810E-21   3.27169441874042E-04
      9.02074596553105E-16  -5.00000000000000E-01  -5.00000000000000E-01   0.00000000000000E+00   0.00000000000000E+00
      0.00000000000000E+00   0.00000000000000E+00   0.00000000000000E+00  -5.47169929063437E-16
      4.05373155006467E-01
      0.00000000000000E+00   0.00000000000000E+00   0.00000000000000E+00   0.00000000000000E+00  -4.21052213563121E-04
     -1.71225008942531E-20  -4.21052213563121E-04   4.61587203274787E-16   4.05373155006467E-01   4.05373155006467E-01
      0.00000000000000E+00   0.00000000000000E+00   4.21052213563154E-04   6.19426417442086E-21   4.21052213563154E-04
      9.35576485401469E-16  -5.00000000000000E-01  -5.00000000000000E-01   0.00000000000000E+00   0.00000000000000E+00
      0.00000000000000E+00   0.00000000000000E+00   0.00000000000000E+00  -5.62646351328193E-16
      4.75203960008118E-01
      0.00000000000000E+00   0.00000000000000E+00   0.00000000000000E+00   0.00000000000000E+00  -5.39736590441103E-04
     -4.76046602009375E-20  -5.39736590441103E-04   4.54621597360854E-16   4.75203960008118E-01   4.75203960008118E-01
      0.00000000000000E+00   0.00000000000000E+00   5.39736590441128E-04   6.33857251790582E-21   5.39736590441128E-04
      9.75585571815138E-16  -5.00000000000000E-01  -5.00000000000000E-01   0.00000000000000E+00   0.00000000000000E+00
      0.00000000000000E+00   0.00000000000000E+00   0.00000000000000E+00  -5.82486815543667E-16
      5.56207693810032E-01
      0.00000000000000E+00   0.00000000000000E+00   0.00000000000000E+00   0.00000000000000E+00  -6.87816042548336E-04
     -9.62703436104534E-20  -6.87816042548336E-04   4.47428033218762E-16   5.56207693810032E-01   5.56207693810032E-01
      0.00000000000000E+00   0.00000000000000E+00   6.87816042548323E-04   6.51968583735710E-21   6.87816042548323E-04
      1.02378724642999E-15  -5.00000000000000E-01  -5.00000000000000E-01   0.00000000000000E+00   0.00000000000000E+00
      0.00000000000000E+00   0.00000000000000E+00   0.00000000000000E+00  -6.02229559992430E-16
      6.49091975236227E-01
      0.00000000000000E+00   0.00000000000000E+00   0.00000000000000E+00   0.00000000000000E+00  -8.68246789509633E-04
     -1.14950011203491E-19  -8.68246789509633E-04   4.40472520419152E-16   6.49091975236227E-01   6.49091975236227E-01
      0.00000000000000E+00   0.00000000000000E+00   8.68246789509621E-04   6.74257596989352E-21   8.68246789509621E-04
      1.08148727365558E-15  -5.00000000000000E-01  -5.00000000000000E-01   0.00000000000000E+00   0.00000000000000E+00
      0.00000000000000E+00   0.00000000000000E+00   0.00000000000000E+00  -6.18269925469533E-16
      7.54360827519248E-01
      0.00000000000000E+00   0.00000000000000E+00   0.00000000000000E+00   0.00000000000000E+00  -1.08404693606281E-03
     -1.30903888542549E-19  -1.08404693606281E-03   4.33353335208018E-16   7.54360827519248E-01   7.54360827519248E-01
      0.00000000000000E+00   0.00000000000000E+00   1.08404693606281E-03   7.01167326218169E-21   1.08404693606281E-03
      1.14943488739032E-15  -5.00000000000000E-01  -5.00000000000000E-01   0.00000000000000E+00   0.00000000000000E+00
      0.00000000000000E+00   0.00000000000000E+00   0.00000000000000E+00  -6.35567281681424E-16
      8.77876280864660E-01
      0.00000000000000E+00   0.00000000000000E+00   0.00000000000000E+00   0.00000000000000E+00  -1.34942901935011E-03
     -1.60537639379350E-19  -1.34942901935011E-03   4.25703919611579E-16   8.77876280864660E-01   8.77876280864660E-01
      0.00000000000000E+00   0.00000000000000E+00   1.34942901935011E-03   7.34921685925700E-21   1.34942901935011E-03
      1.23244343653320E-15  -5.00000000000000E-01  -5.00000000000000E-01   0.00000000000000E+00   0.00000000000000E+00
      0.00000000000000E+00   0.00000000000000E+00   0.00000000000000E+00  -6.56353573061061E-16
      1.00000000000000E+00
      0.00000000000000E+00   0.00000000000000E+00   0.00000000000000E+00   0.00000000000000E+00  -1.62176493618117E-03
     -2.24386501928320E-19  -1.62176493618117E-03   4.18647124670848E-16   1.00000000000000E+00   1.00000000000000E+00
      0.00000000000000E+00   0.00000000000000E+00   1.62176493618118E-03   7.70451857515706E-21   1.62176493618118E-03
      1.31801414503151E-15  -5.00000000000000E-01  -5.00000000000000E-01   0.00000000000000E+00   0.00000000000000E+00
      0.00000000000000E+00   0.00000000000000E+00   0.00000000000000E+00  -6.78321283197231E-16
      0.00000000000000E+00
      0.00000000000000E+00   0.00000000000000E+00   0.00000000000000E+00   0.00000000000000E+00  -1.62176493598683E-03
     -2.24386486988051E-19  -1.62176493598683E-03   4.18647124745165E-16   1.00000000000000E+00   1.00000000000000E+00
      0.00000000000000E+00   0.00000000000000E+00   1.62176493598683E-03   7.70451857234876E-21   1.62176493598683E-03
      1.31801414509598E-15  -5.00000000000000E-01  -5.00000000000000E-01   0.00000000000000E+00   0.00000000000000E+00
      0.00000000000000E+00   0.00000000000000E+00   0.00000000000000E+00  -6.78321282465944E-16
      1.00000000000000E-03
      0.00000000000000E+00   0.00000000000000E+00   0.00000000000000E+00   0.00000000000000E+00  -1.62194293910341E-03
     -2.24518869266653E-19  -1.62194293910341E-03   4.18439468545485E-16   1.00000000000000E+00   1.00000000000000E+00
      0.00000000000000E+00   0.00000000000000E+00   1.62194293910343E-03   7.70470136221192E-21   1.62194293910343E-03
      1.31773500745681E-15  -4.98000000000000E-01  -4.98000000000000E-01   0.00000000000000E+00   0.00000000000000E+00
      0.00000000000000E+00   0.00000000000000E+00   0.00000000000000E+00  -6.76930757509639E-16
      2.17333333333333E-03
      0.00000000000000E+00   0.00000000000000E+00   0.00000000000000E+00   0.00000000000000E+00  -1.62215203136245E-03
     -2.24539704630148E-19  -1.62215203136245E-03   4.18195688350912E-16   1.00000000000000E+00   1.00000000000000E+00
      0.00000000000000E+00   0.00000000000000E+00   1.62215203136247E-03   7.70491598784126E-21   1.62215203136247E-03
      1.31740742753712E-15  -4.95653333333333E-01  -4.95653333333333E-01   0.00000000000000E+00   0.00000000000000E+00
      0.00000000000000E+00   0.00000000000000E+00   0.00000000000000E+00  -6.75299418943821E-16
      3.56568888888889E-03
      0.00000000000000E+00   0.00000000000000E+00   0.00000000000000E+00   0.00000000000000E+00  -1.62240038925301E-03
     -2.24360325527772E-19  -1.62240038925301E-03   4.17906256905373E-16   1.00000000000000E+00   1.00000000000000E+00
      0.00000000000000E+00   0.00000000000000E+00   1.62240038925299E-03   7.70517076857721E-21   1.62240038925299E-03
      1.31701863762833E-15  -4.92868622222222E-01  -4.92868622222222E-01   0.00000000000000E+00   0.00000000000000E+00
      0.00000000000000E+00   0.00000000000000E+00   0.00000000000000E+00  -6.73363494004632E-16
      5.21795081481481E-03
      0.00000000000000E+00   0.00000000000000E+00   0.00000000000000E+00   0.00000000000000E+00  -1.62269528133861E-03
     -2.23833208045645E-19  -1.62269528133861E-03   4.17562653741899E-16   1.00000000000000E+00   1.00000000000000E+00
      0.00000000000000E+00   0.00000000000000E+00   1.62269528133862E-03   7.70547303546901E-21   1.62269528133862E-03
      1.31655721936435E-15  -4.89564098370370E-01  -4.89564098370370E-01   0.00000000000000E+00   0.00000000000000E+00
      0.00000000000000E+00   0.00000000000000E+00   0.00000000000000E+00  -6.71065496614771E-16
      7.17863496691358E-03
      0.00000000000000E+00   0.00000000000000E+00   0.00000000000000E+00   0.00000000000000E+00  -1.62304519641871E-03
     -2.22718471297733E-19  -1.62304519641871E-03   4.17154810103328E-16   1.00000000000000E+00   1.00000000000000E+00
      0.00000000000000E+00   0.00000000000000E+00   1.62304519641870E-03   7.70583127743588E-21   1.62304519641870E-03
      1.31600964782061E-15  -4.85642730066173E-01  -4.85642730066173E-01   0.00000000000000E+00   0.00000000000000E+00
      0.00000000000000E+00   0.00000000000000E+00   0.00000000000000E+00  -6.68336534602556E-16
      9.50531349407078E-03
      0.00000000000000E+00   0.00000000000000E+00   0.00000000000000E+00   0.00000000000000E+00  -1.62345994148066E-03
     -2.20625972319427E-19  -1.62345994148066E-03   4.16670863661827E-16   1.00000000000000E+00   1.00000000000000E+00
      0.00000000000000E+00   0.00000000000000E+00   1.62345994148067E-03   7.70625517638512E-21   1.62345994148067E-03
      1.31535992141452E-15  -4.80989373011858E-01  -4.80989373011858E-01   0.00000000000000E+00   0.00000000000000E+00
      0.00000000000000E+00   0.00000000000000E+00   0.00000000000000E+00  -6.65093637594616E-16
      1.22663053462973E-02
      0.00000000000000E+00   0.00000000000000E+00   0.00000000000000E+00   0.00000000000000E+00  -1.62395066583442E-03
     -2.16921239595503E-19  -1.62395066583442E-03   4.16096898216773E-16   1.00000000000000E+00   1.00000000000000E+00
      0.00000000000000E+00   0.00000000000000E+00   1.62395066583440E-03   7.70675508882530E-21   1.62395066583440E-03
      1.31458913699527E-15  -4.75467389307405E-01  -4.75467389307405E-01   0.00000000000000E+00   0.00000000000000E+00
      0.00000000000000E+00   0.00000000000000E+00   0.00000000000000E+00  -6.61236237847583E-16
      1.55426823442728E-02
      0.00000000000000E+00   0.00000000000000E+00   0.00000000000000E+00   0.00000000000000E+00  -1.62452980004239E-03
     -2.10579357530978E-19  -1.62452980004239E-03   4.15416662242048E-16   1.00000000000000E+00   1.00000000000000E+00
      0.00000000000000E+00   0.00000000000000E+00   1.62452980004242E-03   7.70733972524050E-21   1.62452980004242E-03
      1.31367499385571E-15  -4.68914635311454E-01  -4.68914635311454E-01   0.00000000000000E+00   0.00000000000000E+00
      0.00000000000000E+00   0.00000000000000E+00   0.00000000000000E+00  -6.56641683929355E-16
      1.94306497152037E-02
      0.00000000000000E+00   0.00000000000000E+00   0.00000000000000E+00   0.00000000000000E+00  -1.62521114311012E-03
     -1.99986115626450E-19  -1.62521114311012E-03   4.14611177375085E-16   1.00000000000000E+00   1.00000000000000E+00
      0.00000000000000E+00   0.00000000000000E+00   1.62521114311011E-03   7.70802421429249E-21   1.62521114311011E-03
      1.31259115744993E-15  -4.61138700569592E-01  -4.61138700569592E-01   0.00000000000000E+00   0.00000000000000E+00
      0.00000000000000E+00   0.00000000000000E+00   0.00000000000000E+00  -6.51160547058756E-16
      2.40443709953751E-02
      0.00000000000000E+00   0.00000000000000E+00   0.00000000000000E+00   0.00000000000000E+00  -1.62601152511108E-03
     -1.82787581994501E-19  -1.62601152511108E-03   4.13657725699284E-16   1.00000000000000E+00   1.00000000000000E+00
      0.00000000000000E+00   0.00000000000000E+00   1.62601152511107E-03   7.70882336976175E-21   1.62601152511107E-03
      1.31130615495664E-15  -4.51911258009250E-01  -4.51911258009250E-01   0.00000000000000E+00   0.00000000000000E+00
      0.00000000000000E+00   0.00000000000000E+00   0.00000000000000E+00  -6.44617156557630E-16
      2.95193202478451E-02
      0.00000000000000E+00   0.00000000000000E+00   0.00000000000000E+00   0.00000000000000E+00  -1.62696145800335E-03
     -1.56334569580554E-19  -1.62696145800335E-03   4.12525719119534E-16   1.00000000000000E+00   1.00000000000000E+00
      0.00000000000000E+00   0.00000000000000E+00   1.62696145800334E-03   7.70976715604906E-21   1.62696145800334E-03
      1.30978034815757E-15  -4.40961359504310E-01  -4.40961359504310E-01   0.00000000000000E+00   0.00000000000000E+00
      0.00000000000000E+00   0.00000000000000E+00   0.00000000000000E+00  -6.36842755730019E-16
      3.59432607040766E-02
      0.00000000000000E+00   0.00000000000000E+00   0.00000000000000E+00   0.00000000000000E+00  -1.62813962227186E-03
     -1.20929389647218E-19  -1.62813962227186E-03   4.11175479597097E-16   1.00000000000000E+00   1.00000000000000E+00
      0.00000000000000E+00   0.00000000000000E+00   1.62813962227186E-03   7.71094558778716E-21   1.62813962227186E-03
      1.30797634528832E-15  -4.28113478591847E-01  -4.28113478591847E-01   0.00000000000000E+00   0.00000000000000E+00
      0.00000000000000E+00   0.00000000000000E+00   0.00000000000000E+00  -6.27945306317076E-16
      4.34806841727216E-02
      0.00000000000000E+00   0.00000000000000E+00   0.00000000000000E+00   0.00000000000000E+00  -1.62980000898356E-03
     -8.46304458184013E-20  -1.62980000898356E-03   4.09498499742721E-16   1.00000000000000E+00   1.00000000000000E+00
      0.00000000000000E+00   0.00000000000000E+00   1.62980000898358E-03   7.71265944382368E-21   1.62980000898358E-03
      1.30580619057009E-15  -4.13038631654557E-01  -4.13038631654557E-01   0.00000000000000E+00   0.00000000000000E+00
      0.00000000000000E+00   0.00000000000000E+00   0.00000000000000E+00  -6.18508991697255E-16
      5.23245943759316E-02
      0.00000000000000E+00   0.00000000000000E+00   0.00000000000000E+00   0.00000000000000E+00  -1.63230536898740E-03
     -5.87689562110012E-20  -1.63230536898740E-03   4.07351070992941E-16   1.00000000000000E+00   1.00000000000000E+00