DF-ISE text

Info {
  version   = 1.0
  type      = xyplot
  datasets  = [
    "time"
    "S OuterVoltage" "S InnerVoltage" "S QuasiFermiPotential" "S DisplacementCurrent" "S eCurrent"
    "S hCurrent" "S TotalCurrent" "S Charge" "D OuterVoltage" "D InnerVoltage"
    "D QuasiFermiPotential" "D DisplacementCurrent" "D eCurrent" "D hCurrent" "D TotalCurrent"
    "D Charge" "G OuterVoltage" "G InnerVoltage" "G QuasiFermiPotential" "G DisplacementCurrent"
    "G eCurrent" "G hCurrent" "G TotalCurrent" "G Charge" ]
  functions = [
    Time
    OuterVoltage InnerVoltage QuasiFermiPotential DisplacementCurrent eCurrent
    hCurrent TotalCurrent Charge OuterVoltage InnerVoltage
    QuasiFermiPotential DisplacementCurrent eCurrent hCurrent TotalCurrent
    Charge OuterVoltage InnerVoltage QuasiFermiPotential DisplacementCurrent
    eCurrent hCurrent TotalCurrent Charge ]
}

Data {
      0.00000000000000E+00
      0.00000000000000E+00   0.00000000000000E+00   0.00000000000000E+00   0.00000000000000E+00   3.49367991290491E-19
     -5.75298176533446E-34   3.49367991290491E-19   5.82729150835163E-16   0.00000000000000E+00   0.00000000000000E+00
      0.00000000000000E+00   0.00000000000000E+00   6.97650172005350E-19  -5.28985789246879E-34   6.97650172005350E-19
      7.48518427392812E-16  -5.00000000000000E-01  -5.00000000000000E-01   0.00000000000000E+00   0.00000000000000E+00
      0.00000000000000E+00   0.00000000000000E+00   0.00000000000000E+00  -4.11790173807601E-16
      0.00000000000000E+00
      0.00000000000000E+00   0.00000000000000E+00   0.00000000000000E+00   0.00000000000000E+00   4.19241590041840E-18
      3.09570208587620E-29   4.19241590044936E-18   5.82729150263681E-16   0.00000000000000E+00   0.00000000000000E+00
      0.00000000000000E+00   0.00000000000000E+00   4.18590103692520E-18   3.10458300929238E-29   4.18590103695625E-18
      7.48518426771516E-16  -5.00000000000000E-01  -5.00000000000000E-01   0.00000000000000E+00   0.00000000000000E+00
      0.00000000000000E+00   0.00000000000000E+00   0.00000000000000E+00  -4.11790173828655E-16
      1.00000000000000E-03
      0.00000000000000E+00   0.00000000000000E+00   0.00000000000000E+00   0.00000000000000E+00  -5.58993086656089E-18
     -1.18891152720995E-23  -5.58994275567616E-18   5.82726433910326E-16   1.00000000000000E-03   1.00000000000000E-03
      0.00000000000000E+00   0.00000000000000E+00  -2.78859567289428E-18   1.84989719174934E-21  -2.78674577570253E-18
      7.49134197247031E-16  -5.00000000000000E-01  -5.00000000000000E-01   0.00000000000000E+00   0.00000000000000E+00
      0.00000000000000E+00   0.00000000000000E+00   0.00000000000000E+00  -4.11961922794146E-16
      2.17333333333333E-03
      0.00000000000000E+00   0.00000000000000E+00   0.00000000000000E+00   0.00000000000000E+00  -3.14438208822934E-18
     -2.53645514076465E-23  -3.14440745278075E-18   5.82723355684343E-16   2.17333333333333E-03   2.17333333333333E-03
      0.00000000000000E+00   0.00000000000000E+00  -1.74123978920806E-18   3.93268148227169E-21  -1.73730710772579E-18
      7.49856718300466E-16  -5.00000000000000E-01  -5.00000000000000E-01   0.00000000000000E+00   0.00000000000000E+00
      0.00000000000000E+00   0.00000000000000E+00   0.00000000000000E+00  -4.12163268257320E-16
      3.58133333333333E-03
      0.00000000000000E+00   0.00000000000000E+00   0.00000000000000E+00   0.00000000000000E+00  -3.14442483809706E-18
     -4.10837692629536E-23  -3.14446592186633E-18   5.82719765726590E-16   3.58133333333333E-03   3.58133333333333E-03
      0.00000000000000E+00   0.00000000000000E+00  -2.43542037099469E-18   6.31226882281969E-21  -2.42910810217187E-18
      7.50723714437908E-16  -5.00000000000000E-01  -5.00000000000000E-01   0.00000000000000E+00   0.00000000000000E+00
      0.00000000000000E+00   0.00000000000000E+00   0.00000000000000E+00  -4.12404722344183E-16
      5.27093333333333E-03
      0.00000000000000E+00   0.00000000000000E+00   0.00000000000000E+00   0.00000000000000E+00  -3.84322370842629E-18
     -5.92363741499661E-23  -3.84328294480044E-18   5.82715621066645E-16   5.27093333333333E-03   5.27093333333333E-03
      0.00000000000000E+00   0.00000000000000E+00   4.52040276322248E-18   9.00445591930399E-21   4.52940721914178E-18
      7.51764082778946E-16  -5.00000000000000E-01  -5.00000000000000E-01   0.00000000000000E+00   0.00000000000000E+00
      0.00000000000000E+00   0.00000000000000E+00   0.00000000000000E+00  -4.12694213242462E-16
      7.29845333333333E-03
      0.00000000000000E+00   0.00000000000000E+00   0.00000000000000E+00   0.00000000000000E+00   4.54177933267293E-18
     -8.02251904719376E-23   4.54169910748245E-18   5.82710830276359E-16   7.29845333333333E-03   7.29845333333333E-03
      0.00000000000000E+00   0.00000000000000E+00   4.86209676387811E-18   1.20144964970746E-20   4.87411126037519E-18
      7.53012432250985E-16  -5.00000000000000E-01  -5.00000000000000E-01   0.00000000000000E+00   0.00000000000000E+00
      0.00000000000000E+00   0.00000000000000E+00   0.00000000000000E+00  -4.13041324729633E-16
      9.73147733333333E-03
      0.00000000000000E+00   0.00000000000000E+00   0.00000000000000E+00   0.00000000000000E+00   1.39735673522533E-18
     -1.04029161506766E-22   1.39725270606382E-18   5.82705398567350E-16   9.73147733333333E-03   9.73147733333333E-03
      0.00000000000000E+00   0.00000000000000E+00  -3.44740204230787E-19   1.53328852396249E-20  -3.29407318991162E-19
      7.54510376675481E-16  -5.00000000000000E-01  -5.00000000000000E-01   0.00000000000000E+00   0.00000000000000E+00
      0.00000000000000E+00   0.00000000000000E+00   0.00000000000000E+00  -4.13457368038552E-16
      1.26511061333333E-02
      0.00000000000000E+00   0.00000000000000E+00   0.00000000000000E+00   0.00000000000000E+00  -2.09650522194830E-18
     -1.30828403672185E-22  -2.09663605035198E-18   5.82699285415260E-16   1.26511061333333E-02   1.26511061333333E-02
      0.00000000000000E+00   0.00000000000000E+00  -3.45754657345083E-18   1.89296486781335E-20  -3.43861692477270E-18
      7.56307750929916E-16  -5.00000000000000E-01  -5.00000000000000E-01   0.00000000000000E+00   0.00000000000000E+00
      0.00000000000000E+00   0.00000000000000E+00   0.00000000000000E+00  -4.13956001364630E-16
      1.61157323093333E-02
      0.00000000000000E+00   0.00000000000000E+00   0.00000000000000E+00   0.00000000000000E+00  -1.39779146917526E-18
     -1.60733235221352E-22  -1.39795220241048E-18   5.82692466483936E-16   1.61157323093333E-02   1.61157323093333E-02
      0.00000000000000E+00   0.00000000000000E+00  -3.79449408586770E-18   2.27097544091534E-20  -3.77178433145854E-18
      7.58440271365868E-16  -5.00000000000000E-01  -5.00000000000000E-01   0.00000000000000E+00   0.00000000000000E+00
      0.00000000000000E+00   0.00000000000000E+00   0.00000000000000E+00  -4.14547069322416E-16
      2.02270887048533E-02
      0.00000000000000E+00   0.00000000000000E+00   0.00000000000000E+00   0.00000000000000E+00  -1.04845568695946E-18
     -1.93758891903733E-22  -1.04864944585136E-18   5.82684938964060E-16   2.02270887048533E-02   2.02270887048533E-02
      0.00000000000000E+00   0.00000000000000E+00  -5.50546808252564E-18   2.65937602586444E-20  -5.47887432226700E-18
      7.60970307970541E-16  -5.00000000000000E-01  -5.00000000000000E-01   0.00000000000000E+00   0.00000000000000E+00
      0.00000000000000E+00   0.00000000000000E+00   0.00000000000000E+00  -4.15247646058038E-16
      2.51058982942037E-02
      0.00000000000000E+00   0.00000000000000E+00   0.00000000000000E+00   0.00000000000000E+00  -5.94004549140855E-18
     -2.30046338617768E-22  -5.94027553774717E-18   5.82676671521534E-16   2.51058982942037E-02   2.51058982942037E-02
      0.00000000000000E+00   0.00000000000000E+00  -1.02511017358401E-18   3.04790258600176E-20  -9.94631147723996E-19
      7.63971716613814E-16  -5.00000000000000E-01  -5.00000000000000E-01   0.00000000000000E+00   0.00000000000000E+00
      0.00000000000000E+00   0.00000000000000E+00   0.00000000000000E+00  -4.16078054920194E-16
      3.08954190068995E-02
      0.00000000000000E+00   0.00000000000000E+00   0.00000000000000E+00   0.00000000000000E+00  -1.04855778115754E-18
     -2.69924979983994E-22  -1.04882770613752E-18   5.82667590161768E-16   3.08954190068995E-02   3.08954190068995E-02
      0.00000000000000E+00   0.00000000000000E+00  -2.38835645800478E-18   3.42442937800012E-20  -2.35411216422478E-18
      7.67531925241218E-16  -5.00000000000000E-01  -5.00000000000000E-01   0.00000000000000E+00   0.00000000000000E+00
      0.00000000000000E+00   0.00000000000000E+00   0.00000000000000E+00  -4.17062495649018E-16
      3.77656502526319E-02
      0.00000000000000E+00   0.00000000000000E+00   0.00000000000000E+00   0.00000000000000E+00  -6.99200059037617E-19
     -3.13950707822115E-22  -6.99514009745439E-19   5.82657569779473E-16   3.77656502526319E-02   3.77656502526319E-02
      0.00000000000000E+00   0.00000000000000E+00  -2.03625825384513E-18   3.77592706916263E-20  -1.99849898315350E-18
      7.71754399824061E-16  -5.00000000000000E-01  -5.00000000000000E-01   0.00000000000000E+00   0.00000000000000E+00
      0.00000000000000E+00   0.00000000000000E+00   0.00000000000000E+00  -4.18229776922954E-16
      4.59183246642343E-02
      0.00000000000000E+00   0.00000000000000E+00   0.00000000000000E+00   0.00000000000000E+00   4.54193385430396E-18
     -3.63257178211281E-22   4.54157059712575E-18   5.82646354897552E-16   4.59183246642343E-02   4.59183246642343E-02
      0.00000000000000E+00   0.00000000000000E+00  -1.00795578463750E-18   4.08992297048764E-20  -9.67056554932625E-19
      7.76761473238459E-16  -5.00000000000000E-01  -5.00000000000000E-01   0.00000000000000E+00   0.00000000000000E+00
      0.00000000000000E+00   0.00000000000000E+00   0.00000000000000E+00  -4.19614304930723E-16
      5.55928316326691E-02
      0.00000000000000E+00   0.00000000000000E+00   0.00000000000000E+00   0.00000000000000E+00  -5.24171063776575E-18
     -4.19992196073939E-22  -5.24213062996182E-18   5.82633461764246E-16   5.55928316326691E-02   5.55928316326691E-02
      0.00000000000000E+00   0.00000000000000E+00   4.05150129556645E-18   4.35632360088510E-20   4.09506453157530E-18
      7.82697662948350E-16  -5.00000000000000E-01  -5.00000000000000E-01   0.00000000000000E+00   0.00000000000000E+00
      0.00000000000000E+00   0.00000000000000E+00   0.00000000000000E+00  -4.21257266754627E-16
      6.70732465685451E-02
      0.00000000000000E+00   0.00000000000000E+00   0.00000000000000E+00   0.00000000000000E+00  -4.51843710006944E-22
     -4.88048537891580E-22  -9.39892247898524E-22   5.82618015037938E-16   6.70732465685451E-02   6.70732465685451E-02
      0.00000000000000E+00   0.00000000000000E+00   2.35351556265037E-18   4.56922988311248E-20   2.39920786148150E-18
      7.89733508558678E-16  -5.00000000000000E-01  -5.00000000000000E-01   0.00000000000000E+00   0.00000000000000E+00
      0.00000000000000E+00   0.00000000000000E+00   0.00000000000000E+00  -4.23208118716703E-16
      8.05436000933063E-02
      0.00000000000000E+00   0.00000000000000E+00   0.00000000000000E+00   0.00000000000000E+00  -4.89257390958802E-18
     -5.73209899217434E-22  -4.89314711948724E-18   5.82598719723662E-16   8.05436000933063E-02   8.05436000933063E-02
      0.00000000000000E+00   0.00000000000000E+00   1.61524776209942E-20   4.72682324398094E-20   6.34207100608036E-20
      7.97976396100710E-16  -5.00000000000000E-01  -5.00000000000000E-01   0.00000000000000E+00   0.00000000000000E+00
      0.00000000000000E+00   0.00000000000000E+00   0.00000000000000E+00  -4.25500391850618E-16
      9.63488148956927E-02
      0.00000000000000E+00   0.00000000000000E+00   0.00000000000000E+00   0.00000000000000E+00   3.14457763391341E-18
     -6.86530760343949E-22   3.14389110315306E-18   5.82573106108061E-16   9.63488148956927E-02   9.63488148956927E-02
      0.00000000000000E+00   0.00000000000000E+00  -4.90651092238020E-18   4.83581227291126E-20  -4.85815279965108E-18
      8.07629634459648E-16  -5.00000000000000E-01  -5.00000000000000E-01   0.00000000000000E+00   0.00000000000000E+00
      0.00000000000000E+00   0.00000000000000E+00   0.00000000000000E+00  -4.28196749348513E-16
      1.14893600263826E-01
      0.00000000000000E+00   0.00000000000000E+00   0.00000000000000E+00   0.00000000000000E+00  -4.89304923347590E-18
     -8.47201572249947E-22  -4.89389643504815E-18   5.82536910183945E-16   1.14893600263826E-01   1.14893600263826E-01
      0.00000000000000E+00   0.00000000000000E+00  -3.54570520570159E-18   4.90639530680103E-20  -3.49664125263358E-18
      8.18928845851572E-16  -5.00000000000000E-01  -5.00000000000000E-01   0.00000000000000E+00   0.00000000000000E+00
      0.00000000000000E+00   0.00000000000000E+00   0.00000000000000E+00  -4.31373147179100E-16
      1.36652815095769E-01
      0.00000000000000E+00   0.00000000000000E+00   0.00000000000000E+00   0.00000000000000E+00   2.44598169783809E-18
     -1.08976454680936E-21   2.44489193329128E-18   5.82482518678002E-16   1.36652815095769E-01   1.36652815095769E-01
      0.00000000000000E+00   0.00000000000000E+00   6.80841890788686E-19   4.95009528039924E-20   7.30342843592678E-19
      8.32145623978960E-16  -5.00000000000000E-01  -5.00000000000000E-01   0.00000000000000E+00   0.00000000000000E+00
      0.00000000000000E+00   0.00000000000000E+00   0.00000000000000E+00  -4.35123239411346E-16
      1.62183627165249E-01
      0.00000000000000E+00   0.00000000000000E+00   0.00000000000000E+00   0.00000000000000E+00  -4.19505411035841E-18
     -1.47927631289067E-21  -4.19653338667130E-18   5.82395772010585E-16   1.62183627165249E-01   1.62183627165249E-01
      0.00000000000000E+00   0.00000000000000E+00  -3.41858350228085E-18   4.97753832652912E-20  -3.36880811901556E-18
      8.47590047225483E-16  -5.00000000000000E-01  -5.00000000000000E-01   0.00000000000000E+00   0.00000000000000E+00
      0.00000000000000E+00   0.00000000000000E+00   0.00000000000000E+00  -4.39565800516639E-16
      1.92139779993439E-01
      0.00000000000000E+00   0.00000000000000E+00   0.00000000000000E+00   0.00000000000000E+00  -1.74869956727592E-18
     -2.14512634053414E-21  -1.75084469361645E-18   5.82249081854737E-16   1.92139779993439E-01   1.92139779993439E-01
      0.00000000000000E+00   0.00000000000000E+00   1.02519268028699E-18   4.99689229225694E-20   1.07516160320956E-18
      8.65609806842314E-16  -5.00000000000000E-01  -5.00000000000000E-01   0.00000000000000E+00   0.00000000000000E+00
      0.00000000000000E+00   0.00000000000000E+00   0.00000000000000E+00  -4.44858530377714E-16
      2.27288332645182E-01
      0.00000000000000E+00   0.00000000000000E+00   0.00000000000000E+00   0.00000000000000E+00  -1.74950579225575E-18
     -3.35417471043792E-21  -1.75285996696619E-18   5.81987588339572E-16   2.27288332645182E-01   2.27288332645182E-01
      0.00000000000000E+00   0.00000000000000E+00   5.95104336516117E-18   5.01336117664380E-20   6.00117697692761E-18
      8.86582279645613E-16  -5.00000000000000E-01  -5.00000000000000E-01   0.00000000000000E+00   0.00000000000000E+00
      0.00000000000000E+00   0.00000000000000E+00   0.00000000000000E+00  -4.51223523148413E-16
      2.68060653721204E-01
      0.00000000000000E+00   0.00000000000000E+00   0.00000000000000E+00   0.00000000000000E+00  -5.25104098115290E-18
     -5.60519897336684E-21  -5.25664618012627E-18   5.81516369297023E-16   2.68060653721204E-01   2.68060653721204E-01
      0.00000000000000E+00   0.00000000000000E+00  -1.81244732703562E-18   5.02945086498520E-20  -1.76215281838576E-18
      9.10625790259743E-16  -5.00000000000000E-01  -5.00000000000000E-01   0.00000000000000E+00   0.00000000000000E+00
      0.00000000000000E+00   0.00000000000000E+00   0.00000000000000E+00  -4.58891659820792E-16
      3.15356546169389E-01
      0.00000000000000E+00   0.00000000000000E+00   0.00000000000000E+00   0.00000000000000E+00  -6.30928267056700E-18
     -9.76443048123587E-21  -6.31904710104823E-18   5.80694186232756E-16   3.15356546169389E-01   3.15356546169389E-01
      0.00000000000000E+00   0.00000000000000E+00  -2.14600790347079E-18   5.04620667004919E-20  -2.09554583677030E-18
      9.38070162359129E-16  -5.00000000000000E-01  -5.00000000000000E-01   0.00000000000000E+00   0.00000000000000E+00
      0.00000000000000E+00   0.00000000000000E+00   0.00000000000000E+00  -4.68247377297980E-16
      3.70219781409284E-01
      0.00000000000000E+00   0.00000000000000E+00   0.00000000000000E+00   0.00000000000000E+00  -3.16254504485462E-18
     -1.74324966942639E-20  -3.17997754154888E-18   5.79318859902543E-16   3.70219781409284E-01   3.70219781409284E-01
      0.00000000000000E+00   0.00000000000000E+00   6.78709071987535E-18   5.06382595231850E-20   6.83772897939854E-18
      9.69225762973223E-16  -5.00000000000000E-01  -5.00000000000000E-01   0.00000000000000E+00   0.00000000000000E+00
      0.00000000000000E+00   0.00000000000000E+00   0.00000000000000E+00  -4.79796785011976E-16
      4.33861134287562E-01
      0.00000000000000E+00   0.00000000000000E+00   0.00000000000000E+00   0.00000000000000E+00  -5.28852627556296E-18
     -3.19757206775194E-20  -5.32050199624048E-18   5.77094708532158E-16   4.33861134287562E-01   4.33861134287562E-01
      0.00000000000000E+00   0.00000000000000E+00   1.45005985604096E-17   5.08211129851797E-20   1.45514196733947E-17
      1.00432677809021E-15  -5.00000000000000E-01  -5.00000000000000E-01   0.00000000000000E+00   0.00000000000000E+00
      0.00000000000000E+00   0.00000000000000E+00   0.00000000000000E+00  -4.94224269650030E-16
      5.08533654998075E-01
      0.00000000000000E+00   0.00000000000000E+00   0.00000000000000E+00   0.00000000000000E+00  -2.08961539306147E-17
     -5.87702723710999E-20  -2.09549242029858E-17   5.73874154245699E-16   5.08533654998075E-01   5.08533654998075E-01
      0.00000000000000E+00   0.00000000000000E+00   1.55519228149438E-17   5.10099589657728E-20   1.56029327739096E-17
      1.04416159501312E-15  -5.00000000000000E-01  -5.00000000000000E-01   0.00000000000000E+00   0.00000000000000E+00
      0.00000000000000E+00   0.00000000000000E+00   0.00000000000000E+00  -5.12149582399969E-16
      5.94158145412796E-01
      0.00000000000000E+00   0.00000000000000E+00   0.00000000000000E+00   0.00000000000000E+00  -3.06554706782582E-17
     -1.07340760421113E-19  -3.07628114386793E-17   5.69667921889885E-16   5.94158145412796E-01   5.94158145412796E-01
      0.00000000000000E+00   0.00000000000000E+00   2.83349673859166E-17   5.11942703843074E-20   2.83861616563009E-17
      1.08787289157728E-15  -5.00000000000000E-01  -5.00000000000000E-01   0.00000000000000E+00   0.00000000000000E+00
      0.00000000000000E+00   0.00000000000000E+00   0.00000000000000E+00  -5.33538527684429E-16
      6.94624214166069E-01
      0.00000000000000E+00   0.00000000000000E+00   0.00000000000000E+00   0.00000000000000E+00  -7.16873325307532E-17
     -2.38138944154690E-19  -7.19254714749079E-17   5.62761900528815E-16   6.94624214166069E-01   6.94624214166069E-01
      0.00000000000000E+00   0.00000000000000E+00   7.12832161827483E-17   5.13592375175077E-20   7.13345754202659E-17
      1.13454757144157E-15  -5.00000000000000E-01  -5.00000000000000E-01   0.00000000000000E+00   0.00000000000000E+00
      0.00000000000000E+00   0.00000000000000E+00   0.00000000000000E+00  -5.61849121680022E-16
      8.11164853919866E-01
      0.00000000000000E+00   0.00000000000000E+00   0.00000000000000E+00   0.00000000000000E+00  -1.77466812858421E-16
     -7.28851545767544E-19  -1.78195664404189E-16   5.51358244573866E-16   8.11164853919866E-01   8.11164853919866E-01
      0.00000000000000E+00   0.00000000000000E+00   1.90372665223567E-16   5.14923132596937E-20   1.90424157536827E-16
      1.18205975628735E-15  -5.00000000000000E-01  -5.00000000000000E-01   0.00000000000000E+00   0.00000000000000E+00
      0.00000000000000E+00   0.00000000000000E+00   0.00000000000000E+00  -6.00292287832588E-16
      9.46351996034270E-01
      0.00000000000000E+00   0.00000000000000E+00   0.00000000000000E+00   0.00000000000000E+00  -3.62125008631284E-16
     -1.72039141291549E-18  -3.63845400044199E-16   5.41877922426193E-16   9.46351996034270E-01   9.46351996034270E-01
      0.00000000000000E+00   0.00000000000000E+00   3.72043714651382E-16   5.16276121392714E-20   3.72095342263521E-16
      1.23630917902447E-15  -5.00000000000000E-01  -5.00000000000000E-01   0.00000000000000E+00   0.00000000000000E+00
      0.00000000000000E+00   0.00000000000000E+00   0.00000000000000E+00  -6.38716354966906E-16
      1.00000000000000E+00
      0.00000000000000E+00   0.00000000000000E+00   0.00000000000000E+00   0.00000000000000E+00  -3.99508762435361E-16
     -1.95452751483130E-18  -4.01463289950192E-16   5.40438261993144E-16   1.00000000000000E+00   1.00000000000000E+00
      0.00000000000000E+00   0.00000000000000E+00   4.06021208740812E-16   5.16829367844228E-20   4.06072891677596E-16
      1.25872633727716E-15  -5.00000000000000E-01  -5.00000000000000E-01   0.00000000000000E+00   0.00000000000000E+00
      0.00000000000000E+00   0.00000000000000E+00   0.00000000000000E+00  -6.50108085085878E-16
      0.00000000000000E+00
      0.00000000000000E+00   0.00000000000000E+00   0.00000000000000E+00   0.00000000000000E+00  -4.08459844319627E-16
     -1.95452687157510E-18  -4.10414371191202E-16   5.40438265714099E-16   1.00000000000000E+00   1.00000000000000E+00
      0.00000000000000E+00   0.00000000000000E+00   4.11925196009989E-16   5.16829367933978E-20   4.11976878946782E-16
      1.25872633947451E-15  -5.00000000000000E-01  -5.00000000000000E-01   0.00000000000000E+00   0.00000000000000E+00
      0.00000000000000E+00   0.00000000000000E+00   0.00000000000000E+00  -6.50108078938141E-16
      1.00000000000000E-03
      0.00000000000000E+00   0.00000000000000E+00   0.00000000000000E+00   0.00000000000000E+00  -3.99110655490721E-16
     -1.94771613762345E-18  -4.01058371628344E-16   5.40368731247525E-16   1.00000000000000E+00   1.00000000000000E+00
      0.00000000000000E+00   0.00000000000000E+00   4.07917463912042E-16   5.16830276527872E-20   4.07969146939695E-16
      1.25841337744424E-15  -4.98000000000000E-01  -4.98000000000000E-01   0.00000000000000E+00   0.00000000000000E+00
      0.00000000000000E+00   0.00000000000000E+00   0.00000000000000E+00  -6.48123922908290E-16
      2.16000000000000E-03
      0.00000000000000E+00   0.00000000000000E+00   0.00000000000000E+00   0.00000000000000E+00  -4.10269344240677E-16
     -1.93997713537053E-18  -4.12209321376047E-16   5.40287090908289E-16   1.00000000000000E+00   1.00000000000000E+00
      0.00000000000000E+00   0.00000000000000E+00   4.11939945204295E-16   5.16831311653031E-20   4.11991628335460E-16
      1.25804944166672E-15  -4.95680000000000E-01  -4.95680000000000E-01   0.00000000000000E+00   0.00000000000000E+00
      0.00000000000000E+00   0.00000000000000E+00   0.00000000000000E+00  -6.45827064346954E-16
      3.53653333333333E-03
      0.00000000000000E+00   0.00000000000000E+00   0.00000000000000E+00   0.00000000000000E+00  -3.99794406943663E-16
     -1.93101212945872E-18  -4.01725419073122E-16   5.40188865682662E-16   1.00000000000000E+00   1.00000000000000E+00
      0.00000000000000E+00   0.00000000000000E+00   4.13602024503298E-16   5.16832514315916E-20   4.13653707754730E-16
      1.25761632833204E-15  -4.92926933333333E-01  -4.92926933333333E-01   0.00000000000000E+00   0.00000000000000E+00
      0.00000000000000E+00   0.00000000000000E+00   0.00000000000000E+00  -6.43108098721055E-16
      5.17001955555556E-03
      0.00000000000000E+00   0.00000000000000E+00   0.00000000000000E+00   0.00000000000000E+00  -4.09449695372676E-16
     -1.92067760488838E-18  -4.11370372977564E-16   5.40070406873994E-16   1.00000000000000E+00   1.00000000000000E+00
      0.00000000000000E+00   0.00000000000000E+00   4.01096996145196E-16   5.16833905339644E-20   4.01148679535730E-16
      1.25710061324843E-15  -4.89659960888889E-01  -4.89659960888889E-01   0.00000000000000E+00   0.00000000000000E+00
      0.00000000000000E+00   0.00000000000000E+00   0.00000000000000E+00  -6.39891010234079E-16
      7.10842320592592E-03
      0.00000000000000E+00   0.00000000000000E+00   0.00000000000000E+00   0.00000000000000E+00  -4.08658443600928E-16
     -1.90883389569034E-18  -4.10567277496618E-16   5.39927166802767E-16   1.00000000000000E+00   1.00000000000000E+00
      0.00000000000000E+00   0.00000000000000E+00   4.04178926760344E-16   5.16835505446145E-20   4.04230610310889E-16
      1.25648616234780E-15  -4.85783153588148E-01  -4.85783153588148E-01   0.00000000000000E+00   0.00000000000000E+00
      0.00000000000000E+00   0.00000000000000E+00   0.00000000000000E+00  -6.36086752767133E-16
      9.40866220436543E-03
      0.00000000000000E+00   0.00000000000000E+00   0.00000000000000E+00   0.00000000000000E+00  -4.03387695415366E-16
     -1.89535843754788E-18  -4.05283053852914E-16   5.39753431619453E-16   1.00000000000000E+00   1.00000000000000E+00
      0.00000000000000E+00   0.00000000000000E+00   4.07970636076519E-16   5.16837333425357E-20   4.08022319809861E-16
      1.25575353750433E-15  -4.81182675591269E-01  -4.81182675591269E-01   0.00000000000000E+00   0.00000000000000E+00
      0.00000000000000E+00   0.00000000000000E+00   0.00000000000000E+00  -6.31591330594912E-16
      1.21382791491803E-02
      0.00000000000000E+00   0.00000000000000E+00   0.00000000000000E+00   0.00000000000000E+00  -4.11528696573951E-16
     -1.88016553302219E-18  -4.13408862106973E-16   5.39541963520988E-16   1.00000000000000E+00   1.00000000000000E+00
      0.00000000000000E+00   0.00000000000000E+00   4.07041380004327E-16   5.16839403271671E-20   4.07093063944654E-16
      1.25487925725984E-15  -4.75723441701639E-01  -4.75723441701639E-01   0.00000000000000E+00   0.00000000000000E+00
      0.00000000000000E+00   0.00000000000000E+00   0.00000000000000E+00  -6.26283741890322E-16
      1.53774245903606E-02
      0.00000000000000E+00   0.00000000000000E+00   0.00000000000000E+00   0.00000000000000E+00  -4.05126780238761E-16
     -1.86323407626001E-18  -4.06990014315021E-16   5.39283523661363E-16   1.00000000000000E+00   1.00000000000000E+00
      0.00000000000000E+00   0.00000000000000E+00   4.00683330065829E-16   5.16841719972019E-20   4.00735014237826E-16
      1.25383487686108E-15  -4.69245150819279E-01  -4.69245150819279E-01   0.00000000000000E+00   0.00000000000000E+00
      0.00000000000000E+00   0.00000000000000E+00   0.00000000000000E+00  -6.20023845744894E-16
      1.92212105138946E-02
      0.00000000000000E+00   0.00000000000000E+00   0.00000000000000E+00   0.00000000000000E+00  -4.06916629956396E-16
     -1.84465467955417E-18  -4.08761284635950E-16   5.38966176752196E-16   1.00000000000000E+00   1.00000000000000E+00
      0.00000000000000E+00   0.00000000000000E+00   4.08492937507093E-16   5.16844272102118E-20   4.08544621934303E-16
      1.25258580973920E-15  -4.61557578972211E-01  -4.61557578972211E-01   0.00000000000000E+00   0.00000000000000E+00
      0.00000000000000E+00   0.00000000000000E+00   0.00000000000000E+00  -6.12650355068428E-16
      2.37312526641745E-02
      0.00000000000000E+00   0.00000000000000E+00   0.00000000000000E+00   0.00000000000000E+00  -4.07955323369124E-16
     -1.82488128127810E-18  -4.09780204650402E-16   5.38578990285737E-16   1.00000000000000E+00   1.00000000000000E+00
      0.00000000000000E+00   0.00000000000000E+00   4.04970515422395E-16   5.16846995705804E-20   4.05022200121966E-16
      1.25110683330899E-15  -4.52537494671651E-01  -4.52537494671651E-01   0.00000000000000E+00   0.00000000000000E+00
      0.00000000000000E+00   0.00000000000000E+00   0.00000000000000E+00  -6.04075805534203E-16
      2.90230354538362E-02
      0.00000000000000E+00   0.00000000000000E+00   0.00000000000000E+00   0.00000000000000E+00  -4.07872728352448E-16
     -1.80442307068634E-18  -4.09677151423134E-16   5.38103814817106E-16   1.00000000000000E+00   1.00000000000000E+00
      0.00000000000000E+00   0.00000000000000E+00   4.06641992107599E-16   5.16849813575832E-20   4.06693677088957E-16
      1.24935303565577E-15  -4.41953929092328E-01  -4.41953929092328E-01   0.00000000000000E+00   0.00000000000000E+00
      0.00000000000000E+00   0.00000000000000E+00   0.00000000000000E+00  -5.94122984970225E-16
      3.52320605937060E-02
      0.00000000000000E+00   0.00000000000000E+00   0.00000000000000E+00   0.00000000000000E+00  -4.12258291329038E-16
     -1.78414881478877E-18  -4.14042440143827E-16   5.37516664751113E-16   1.00000000000000E+00   1.00000000000000E+00
      0.00000000000000E+00   0.00000000000000E+00   4.10436557180289E-16   5.16852589388603E-20   4.10488242439228E-16
      1.24726986624367E-15  -4.29535878812588E-01  -4.29535878812588E-01   0.00000000000000E+00   0.00000000000000E+00
      0.00000000000000E+00   0.00000000000000E+00   0.00000000000000E+00  -5.82596662786067E-16
      4.25173167578198E-02
      0.00000000000000E+00   0.00000000000000E+00   0.00000000000000E+00   0.00000000000000E+00  -4.03618173146179E-16
     -1.76551194579535E-18  -4.05383685091974E-16   5.36785113135032E-16   1.00000000000000E+00   1.00000000000000E+00
      0.00000000000000E+00   0.00000000000000E+00   4.03132933452883E-16   5.16855089546494E-20   4.03184618961837E-16
      1.24479070526417E-15  -4.14965366484360E-01  -4.14965366484360E-01   0.00000000000000E+00   0.00000000000000E+00
      0.00000000000000E+00   0.00000000000000E+00   0.00000000000000E+00  -5.69286196597240E-16
      5.10653506570467E-02
      0.00000000000000E+00   0.00000000000000E+00   0.00000000000000E+00   0.00000000000000E+00  -4.03930581643606E-16
     -1.75094519111756E-18  -4.05681526834724E-16   5.35864127858875E-16   1.00000000000000E+00   1.00000000000000E+00