DF-ISE text

Info {
  version   = 1.0
  type      = xyplot
  datasets  = [
    "time"
    "S OuterVoltage" "S InnerVoltage" "S QuasiFermiPotential" "S DisplacementCurrent" "S eCurrent"
    "S hCurrent" "S TotalCurrent" "S Charge" "D OuterVoltage" "D InnerVoltage"
    "D QuasiFermiPotential" "D DisplacementCurrent" "D eCurrent" "D hCurrent" "D TotalCurrent"
    "D Charge" "G OuterVoltage" "G InnerVoltage" "G QuasiFermiPotential" "G DisplacementCurrent"
    "G eCurrent" "G hCurrent" "G TotalCurrent" "G Charge" ]
  functions = [
    Time
    OuterVoltage InnerVoltage QuasiFermiPotential DisplacementCurrent eCurrent
    hCurrent TotalCurrent Charge OuterVoltage InnerVoltage
    QuasiFermiPotential DisplacementCurrent eCurrent hCurrent TotalCurrent
    Charge OuterVoltage InnerVoltage QuasiFermiPotential DisplacementCurrent
    eCurrent hCurrent TotalCurrent Charge ]
}

Data {
      0.00000000000000E+00
      0.00000000000000E+00   0.00000000000000E+00   0.00000000000000E+00   0.00000000000000E+00   1.96199303868856E-18
     -7.34035003477487E-35   1.96199303868856E-18   4.86199028813338E-16   0.00000000000000E+00   0.00000000000000E+00
      0.00000000000000E+00   0.00000000000000E+00  -7.72811896956344E-38  -3.67440400354709E-35  -3.68213212251665E-35
      6.43661218272367E-16  -5.00000000000000E-01  -5.00000000000000E-01   0.00000000000000E+00   0.00000000000000E+00
      0.00000000000000E+00   0.00000000000000E+00   0.00000000000000E+00  -4.17628338745238E-16
      0.00000000000000E+00
      0.00000000000000E+00   0.00000000000000E+00   0.00000000000000E+00   0.00000000000000E+00   1.58520595577048E-17
      3.88359864814974E-31   1.58520595577052E-17   4.86199027988428E-16   0.00000000000000E+00   0.00000000000000E+00
      0.00000000000000E+00   0.00000000000000E+00  -2.11825203513884E-17   3.88148348211809E-31  -2.11825203513881E-17
      6.43661217422348E-16  -5.00000000000000E-01  -5.00000000000000E-01   0.00000000000000E+00   0.00000000000000E+00
      0.00000000000000E+00   0.00000000000000E+00   0.00000000000000E+00  -4.17628338789678E-16
      1.00000000000000E-03
      0.00000000000000E+00   0.00000000000000E+00   0.00000000000000E+00   0.00000000000000E+00  -2.39101407286311E-17
     -1.30662750278044E-22  -2.39102713913814E-17   4.86124127043982E-16   1.00000000000000E-03   1.00000000000000E-03
      0.00000000000000E+00   0.00000000000000E+00  -6.57816970868344E-18   2.22105282838052E-22  -6.57794760340060E-18
      6.43961872642372E-16  -5.00000000000000E-01  -5.00000000000000E-01   0.00000000000000E+00   0.00000000000000E+00
      0.00000000000000E+00   0.00000000000000E+00   0.00000000000000E+00  -4.18039569936880E-16
      2.17333333333333E-03
      0.00000000000000E+00   0.00000000000000E+00   0.00000000000000E+00   0.00000000000000E+00  -8.74645393348450E-18
     -2.84264595167815E-22  -8.74673819807967E-18   4.86037089058936E-16   2.17333333333333E-03   2.17333333333333E-03
      0.00000000000000E+00   0.00000000000000E+00  -7.32147383608756E-18   4.77744641879468E-22  -7.32099609144568E-18
      6.44315390725939E-16  -5.00000000000000E-01  -5.00000000000000E-01   0.00000000000000E+00   0.00000000000000E+00
      0.00000000000000E+00   0.00000000000000E+00   0.00000000000000E+00  -4.18518773833752E-16
      3.56568888888889E-03
      0.00000000000000E+00   0.00000000000000E+00   0.00000000000000E+00   0.00000000000000E+00  -3.31441940453902E-18
     -4.66901114679334E-22  -3.31488630565370E-18   4.85934973480736E-16   3.56568888888889E-03   3.56568888888889E-03
      0.00000000000000E+00   0.00000000000000E+00  -1.96359866513766E-17   7.74146415513196E-22  -1.96352125049611E-17
      6.44735925418075E-16  -5.00000000000000E-01  -5.00000000000000E-01   0.00000000000000E+00   0.00000000000000E+00
      0.00000000000000E+00   0.00000000000000E+00   0.00000000000000E+00  -4.19082857378646E-16
      5.21795081481481E-03
      0.00000000000000E+00   0.00000000000000E+00   0.00000000000000E+00   0.00000000000000E+00  -1.81464236537653E-17
     -6.84068621605491E-22  -1.81471077223869E-17   4.85815417229378E-16   5.21795081481481E-03   5.21795081481481E-03
      0.00000000000000E+00   0.00000000000000E+00   2.16663488040833E-17   1.11609482606733E-21   2.16674648989094E-17
      6.45236367090395E-16  -5.00000000000000E-01  -5.00000000000000E-01   0.00000000000000E+00   0.00000000000000E+00
      0.00000000000000E+00   0.00000000000000E+00   0.00000000000000E+00  -4.19745902233060E-16
      7.17863496691358E-03
      0.00000000000000E+00   0.00000000000000E+00   0.00000000000000E+00   0.00000000000000E+00  -1.30320620749685E-17
     -9.42278535461102E-22  -1.30330043535040E-17   4.85675782328414E-16   7.17863496691358E-03   7.17863496691358E-03
      0.00000000000000E+00   0.00000000000000E+00   2.35869374689798E-17   1.50815550692342E-21   2.35884456244868E-17
      6.45832142164521E-16  -5.00000000000000E-01  -5.00000000000000E-01   0.00000000000000E+00   0.00000000000000E+00
      0.00000000000000E+00   0.00000000000000E+00   0.00000000000000E+00  -4.20523970610433E-16
      9.50531349407078E-03
      0.00000000000000E+00   0.00000000000000E+00   0.00000000000000E+00   0.00000000000000E+00  -9.03709009934207E-18
     -1.24921879825001E-21  -9.03833931814032E-18   4.85513160025823E-16   9.50531349407078E-03   9.50531349407078E-03
      0.00000000000000E+00   0.00000000000000E+00   2.07691416447279E-17   1.95423291290103E-21   2.07710958776408E-17
      6.46541722954127E-16  -5.00000000000000E-01  -5.00000000000000E-01   0.00000000000000E+00   0.00000000000000E+00
      0.00000000000000E+00   0.00000000000000E+00   0.00000000000000E+00  -4.21435259138742E-16
      1.22663053462973E-02
      0.00000000000000E+00   0.00000000000000E+00   0.00000000000000E+00   0.00000000000000E+00  -1.61256399690043E-17
     -1.61392241831453E-21  -1.61272538914226E-17   4.85324390121498E-16   1.22663053462973E-02   1.22663053462973E-02
      0.00000000000000E+00   0.00000000000000E+00   5.00496318649180E-17   2.45693512908646E-21   5.00520888000470E-17
      6.47387237422883E-16  -5.00000000000000E-01  -5.00000000000000E-01   0.00000000000000E+00   0.00000000000000E+00
      0.00000000000000E+00   0.00000000000000E+00   0.00000000000000E+00  -4.22500225038917E-16
      1.55426823442728E-02
      0.00000000000000E+00   0.00000000000000E+00   0.00000000000000E+00   0.00000000000000E+00  -3.08461400329275E-17
     -2.04693280335686E-21  -3.08481869657308E-17   4.85106098640108E-16   1.55426823442728E-02   1.55426823442728E-02
      0.00000000000000E+00   0.00000000000000E+00   4.48287432963511E-17   3.01671155784485E-21   4.48317600079090E-17
      6.48395193259358E-16  -5.00000000000000E-01  -5.00000000000000E-01   0.00000000000000E+00   0.00000000000000E+00
      0.00000000000000E+00   0.00000000000000E+00   0.00000000000000E+00  -4.23741677992382E-16
      1.94306497152037E-02
      0.00000000000000E+00   0.00000000000000E+00   0.00000000000000E+00   0.00000000000000E+00  -3.21729187877484E-17
     -2.56044341090189E-21  -3.21754792311593E-17   4.84854757274293E-16   1.94306497152037E-02   1.94306497152037E-02
      0.00000000000000E+00   0.00000000000000E+00   3.17130806471136E-17   3.63076072479264E-21   3.17167114078384E-17
      6.49597331579015E-16  -5.00000000000000E-01  -5.00000000000000E-01   0.00000000000000E+00   0.00000000000000E+00
      0.00000000000000E+00   0.00000000000000E+00   0.00000000000000E+00  -4.25184829919930E-16
      2.40443709953751E-02
      0.00000000000000E+00   0.00000000000000E+00   0.00000000000000E+00   0.00000000000000E+00  -4.37518638256314E-17
     -3.16838584245752E-21  -4.37550322114739E-17   4.84566762852764E-16   2.40443709953751E-02   2.40443709953751E-02
      0.00000000000000E+00   0.00000000000000E+00   4.09469553051079E-17   4.29176406704940E-21   4.09512470691750E-17
      6.51031620601767E-16  -5.00000000000000E-01  -5.00000000000000E-01   0.00000000000000E+00   0.00000000000000E+00
      0.00000000000000E+00   0.00000000000000E+00   0.00000000000000E+00  -4.26857316379289E-16
      2.95193202478451E-02
      0.00000000000000E+00   0.00000000000000E+00   0.00000000000000E+00   0.00000000000000E+00  -2.40201968890446E-17
     -3.88642361608432E-21  -2.40240833126607E-17   4.84238531451269E-16   2.95193202478451E-02   2.95193202478451E-02
      0.00000000000000E+00   0.00000000000000E+00   4.01443684675198E-17   4.98661470101741E-21   4.01493550822208E-17
      6.52743397734075E-16  -5.00000000000000E-01  -5.00000000000000E-01   0.00000000000000E+00   0.00000000000000E+00
      0.00000000000000E+00   0.00000000000000E+00   0.00000000000000E+00  -4.28789214243604E-16
      3.60162600274429E-02
      0.00000000000000E+00   0.00000000000000E+00   0.00000000000000E+00   0.00000000000000E+00  -5.86308925970725E-17
     -4.73177515609936E-21  -5.86356243722286E-17   4.83866602054505E-16   3.60162600274429E-02   3.60162600274429E-02
      0.00000000000000E+00   0.00000000000000E+00   7.25734021571845E-17   5.69546685575008E-21   7.25790976240403E-17
      6.54786669987051E-16  -5.00000000000000E-01  -5.00000000000000E-01   0.00000000000000E+00   0.00000000000000E+00
      0.00000000000000E+00   0.00000000000000E+00   0.00000000000000E+00  -4.31013082000443E-16
      4.37259618992322E-02
      0.00000000000000E+00   0.00000000000000E+00   0.00000000000000E+00   0.00000000000000E+00  -4.75511699596798E-17
     -5.72271857631363E-21  -4.75568926782561E-17   4.83447748873707E-16   4.37259618992322E-02   4.37259618992322E-02
      0.00000000000000E+00   0.00000000000000E+00   4.45643405522971E-17   6.39157935885957E-21   4.45707321316560E-17
      6.57225592197219E-16  -5.00000000000000E-01  -5.00000000000000E-01   0.00000000000000E+00   0.00000000000000E+00
      0.00000000000000E+00   0.00000000000000E+00   0.00000000000000E+00  -4.33564027326081E-16
      5.28748081204222E-02
      0.00000000000000E+00   0.00000000000000E+00   0.00000000000000E+00   0.00000000000000E+00  -7.00715782680881E-17
     -6.87749879176198E-21  -7.00784557668799E-17   4.82979114236619E-16   5.28748081204222E-02   5.28748081204222E-02
      0.00000000000000E+00   0.00000000000000E+00   7.30175985328638E-17   7.04242643016891E-21   7.30246409592940E-17
      6.60136162174377E-16  -5.00000000000000E-01  -5.00000000000000E-01   0.00000000000000E+00   0.00000000000000E+00
      0.00000000000000E+00   0.00000000000000E+00   0.00000000000000E+00  -4.36479757900836E-16
      6.36094543532852E-02
      0.00000000000000E+00   0.00000000000000E+00   0.00000000000000E+00   0.00000000000000E+00  -6.73952925964742E-17
     -8.19718303849521E-21  -6.74034897795127E-17   4.82464093769513E-16   6.36094543532852E-02   6.36094543532852E-02
      0.00000000000000E+00   0.00000000000000E+00   5.80678517687716E-17   7.60683798323212E-21   5.80754586067548E-17
      6.63569139845260E-16  -5.00000000000000E-01  -5.00000000000000E-01   0.00000000000000E+00   0.00000000000000E+00
      0.00000000000000E+00   0.00000000000000E+00   0.00000000000000E+00  -4.39763780975287E-16
      7.62047725998443E-02
      0.00000000000000E+00   0.00000000000000E+00   0.00000000000000E+00   0.00000000000000E+00  -3.68430829467362E-17
     -9.68727647941154E-21  -3.68527702232156E-17   4.81902070982484E-16   7.62047725998443E-02   7.62047725998443E-02
      0.00000000000000E+00   0.00000000000000E+00   8.37133642939732E-17   8.05349217954777E-21   8.37214177861527E-17
      6.67616076609435E-16  -5.00000000000000E-01  -5.00000000000000E-01   0.00000000000000E+00   0.00000000000000E+00
      0.00000000000000E+00   0.00000000000000E+00   0.00000000000000E+00  -4.43449978809704E-16
      9.09832793424738E-02
      0.00000000000000E+00   0.00000000000000E+00   0.00000000000000E+00   0.00000000000000E+00  -7.03977728724967E-17
     -1.13391973337402E-20  -7.04091120698305E-17   4.81293790606468E-16   9.09832793424738E-02   9.09832793424738E-02
      0.00000000000000E+00   0.00000000000000E+00   8.65775242909352E-17   8.35352666826931E-21   8.65858778176034E-17
      6.72383953592844E-16  -5.00000000000000E-01  -5.00000000000000E-01   0.00000000000000E+00   0.00000000000000E+00
      0.00000000000000E+00   0.00000000000000E+00   0.00000000000000E+00  -4.47571729045074E-16
      1.08323393920492E-01
      0.00000000000000E+00   0.00000000000000E+00   0.00000000000000E+00   0.00000000000000E+00  -7.80410122976723E-17
     -1.31214174622686E-20  -7.80541337151346E-17   4.80641454336037E-16   1.08323393920492E-01   1.08323393920492E-01
      0.00000000000000E+00   0.00000000000000E+00   8.38920411933069E-17   8.48399330928069E-21   8.39005251866162E-17
      6.77997452054014E-16  -5.00000000000000E-01  -5.00000000000000E-01   0.00000000000000E+00   0.00000000000000E+00
      0.00000000000000E+00   0.00000000000000E+00   0.00000000000000E+00  -4.52161846884061E-16
      1.28669128358701E-01
      0.00000000000000E+00   0.00000000000000E+00   0.00000000000000E+00   0.00000000000000E+00  -1.05797699725564E-16
     -1.49764234430888E-20  -1.05812676149007E-16   4.79947081901277E-16   1.28669128358701E-01   1.28669128358701E-01
      0.00000000000000E+00   0.00000000000000E+00   1.06362657761436E-16   8.45014020559454E-21   1.06371107901642E-16
      6.84600246676857E-16  -5.00000000000000E-01  -5.00000000000000E-01   0.00000000000000E+00   0.00000000000000E+00
      0.00000000000000E+00   0.00000000000000E+00   0.00000000000000E+00  -4.57258693215384E-16
      1.52541456766199E-01
      0.00000000000000E+00   0.00000000000000E+00   0.00000000000000E+00   0.00000000000000E+00  -1.17145350943370E-16
     -1.68370860022928E-20  -1.17162188029372E-16   4.79207655297995E-16   1.52541456766199E-01   1.52541456766199E-01
      0.00000000000000E+00   0.00000000000000E+00   1.06124318870989E-16   8.29910492299337E-21   1.06132617975912E-16
      6.92354441942808E-16  -5.00000000000000E-01  -5.00000000000000E-01   0.00000000000000E+00   0.00000000000000E+00
      0.00000000000000E+00   0.00000000000000E+00   0.00000000000000E+00  -4.62923743775708E-16
      1.80551655430996E-01
      0.00000000000000E+00   0.00000000000000E+00   0.00000000000000E+00   0.00000000000000E+00  -1.49026547137404E-16
     -1.86659170151366E-20  -1.49045213054419E-16   4.78408088657612E-16   1.80551655430996E-01   1.80551655430996E-01
      0.00000000000000E+00   0.00000000000000E+00   1.26135320784728E-16   8.08401809218092E-21   1.26143404802820E-16
      7.01439415610332E-16  -5.00000000000000E-01  -5.00000000000000E-01   0.00000000000000E+00   0.00000000000000E+00
      0.00000000000000E+00   0.00000000000000E+00   0.00000000000000E+00  -4.69266613582913E-16
      2.13416955197692E-01
      0.00000000000000E+00   0.00000000000000E+00   0.00000000000000E+00   0.00000000000000E+00  -1.73296519627762E-16
     -2.05128815700971E-20  -1.73317032509332E-16   4.77513553410984E-16   2.13416955197692E-01   2.13416955197692E-01
      0.00000000000000E+00   0.00000000000000E+00   1.87097499391686E-16   7.85016128554352E-21   1.87105349552971E-16
      7.12051576266094E-16  -5.00000000000000E-01  -5.00000000000000E-01   0.00000000000000E+00   0.00000000000000E+00
      0.00000000000000E+00   0.00000000000000E+00   0.00000000000000E+00  -4.76471874469422E-16
      2.51978906923948E-01
      0.00000000000000E+00   0.00000000000000E+00   0.00000000000000E+00   0.00000000000000E+00  -2.19260459401270E-16
     -2.26886290527840E-20  -2.19283148030323E-16   4.76448435397237E-16   2.51978906923948E-01   2.51978906923948E-01
      0.00000000000000E+00   0.00000000000000E+00   2.51560360371415E-16   7.67144731994382E-21   2.51568031818735E-16
      7.24396491447655E-16  -5.00000000000000E-01  -5.00000000000000E-01   0.00000000000000E+00   0.00000000000000E+00
      0.00000000000000E+00   0.00000000000000E+00   0.00000000000000E+00  -4.84875719914540E-16
      2.96710770926406E-01
      0.00000000000000E+00   0.00000000000000E+00   0.00000000000000E+00   0.00000000000000E+00  -3.37745910700260E-16
     -2.60586139564863E-20  -3.37771969314217E-16   4.75083969991228E-16   2.96710770926406E-01   2.96710770926406E-01
      0.00000000000000E+00   0.00000000000000E+00   3.67908920408260E-16   7.66213069953328E-21   3.67916582538960E-16
      7.38518963689806E-16  -5.00000000000000E-01  -5.00000000000000E-01   0.00000000000000E+00   0.00000000000000E+00
      0.00000000000000E+00   0.00000000000000E+00   0.00000000000000E+00  -4.94956528503861E-16
      3.48599733169256E-01
      0.00000000000000E+00   0.00000000000000E+00   0.00000000000000E+00   0.00000000000000E+00  -5.52017824887575E-16
     -3.12788721126534E-20  -5.52049103759687E-16   4.73344163894510E-16   3.48599733169256E-01   3.48599733169256E-01
      0.00000000000000E+00   0.00000000000000E+00   5.80072578956264E-16   7.74110623482216E-21   5.80080320062499E-16
      7.54678296936992E-16  -5.00000000000000E-01  -5.00000000000000E-01   0.00000000000000E+00   0.00000000000000E+00
      0.00000000000000E+00   0.00000000000000E+00   0.00000000000000E+00  -5.07035031739402E-16
      4.08790929370963E-01
      0.00000000000000E+00   0.00000000000000E+00   0.00000000000000E+00   0.00000000000000E+00  -9.23115377071134E-16
     -3.76317770094831E-20  -9.23153008848143E-16   4.71297124150729E-16   4.08790929370963E-01   4.08790929370963E-01
      0.00000000000000E+00   0.00000000000000E+00   9.53796253678351E-16   7.81092699423612E-21   9.53804064605345E-16
      7.73273588982593E-16  -5.00000000000000E-01  -5.00000000000000E-01   0.00000000000000E+00   0.00000000000000E+00
      0.00000000000000E+00   0.00000000000000E+00   0.00000000000000E+00  -5.20864113905980E-16
      4.79415266247632E-01
      0.00000000000000E+00   0.00000000000000E+00   0.00000000000000E+00   0.00000000000000E+00  -1.84373167861499E-15
     -4.52358238441917E-20  -1.84377691443884E-15   4.68852876326500E-16   4.79415266247632E-01   4.79415266247632E-01
      0.00000000000000E+00   0.00000000000000E+00   1.84625780213787E-15   7.83491957276644E-21   1.84626563705745E-15
      7.94914067581693E-16  -5.00000000000000E-01  -5.00000000000000E-01   0.00000000000000E+00   0.00000000000000E+00
      0.00000000000000E+00   0.00000000000000E+00   0.00000000000000E+00  -5.36833230107109E-16
      5.61339497024568E-01
      0.00000000000000E+00   0.00000000000000E+00   0.00000000000000E+00   0.00000000000000E+00  -4.07223121867397E-15
     -5.35799008366419E-20  -4.07228479857481E-15   4.65967041104162E-16   5.61339497024568E-01   5.61339497024568E-01
      0.00000000000000E+00   0.00000000000000E+00   4.08740209720840E-15   7.82772183422816E-21   4.08740992493023E-15
      8.19816277161422E-16  -5.00000000000000E-01  -5.00000000000000E-01   0.00000000000000E+00   0.00000000000000E+00
      0.00000000000000E+00   0.00000000000000E+00   0.00000000000000E+00  -5.54958259646152E-16
      6.56371604725814E-01
      0.00000000000000E+00   0.00000000000000E+00   0.00000000000000E+00   0.00000000000000E+00  -1.04109329173139E-14
     -6.20142185272055E-20  -1.04109949315325E-14   4.62527594455341E-16   6.56371604725814E-01   6.56371604725814E-01
      0.00000000000000E+00   0.00000000000000E+00   1.04371708580551E-14   7.82182198027628E-21   1.04371786798770E-14
      8.48460659875812E-16  -5.00000000000000E-01  -5.00000000000000E-01   0.00000000000000E+00   0.00000000000000E+00
      0.00000000000000E+00   0.00000000000000E+00   0.00000000000000E+00  -5.75516188896493E-16
      7.66608849659259E-01
      0.00000000000000E+00   0.00000000000000E+00   0.00000000000000E+00   0.00000000000000E+00  -3.12451997547328E-14
     -7.03308473833709E-20  -3.12452700855802E-14   4.58359311433917E-16   7.66608849659259E-01   7.66608849659259E-01
      0.00000000000000E+00   0.00000000000000E+00   3.12415587027992E-14   7.82200655254291E-21   3.12415665248058E-14
      8.81391885530202E-16  -5.00000000000000E-01  -5.00000000000000E-01   0.00000000000000E+00   0.00000000000000E+00
      0.00000000000000E+00   0.00000000000000E+00   0.00000000000000E+00  -5.99003566944602E-16
      8.93014223849610E-01
      0.00000000000000E+00   0.00000000000000E+00   0.00000000000000E+00   0.00000000000000E+00  -1.11092712553848E-13
     -8.10264868483215E-20  -1.11092793580335E-13   4.53261360209591E-16   8.93014223849610E-01   8.93014223849610E-01
      0.00000000000000E+00   0.00000000000000E+00   1.11111660699235E-13   7.82927034681654E-21   1.11111668528505E-13
      9.18784752048780E-16  -5.00000000000000E-01  -5.00000000000000E-01   0.00000000000000E+00   0.00000000000000E+00
      0.00000000000000E+00   0.00000000000000E+00   0.00000000000000E+00  -6.26103729262947E-16
      1.00000000000000E+00
      0.00000000000000E+00   0.00000000000000E+00   0.00000000000000E+00   0.00000000000000E+00  -3.22028729525174E-13
     -9.10535461220637E-20  -3.22028820578720E-13   4.48774253294586E-16   1.00000000000000E+00   1.00000000000000E+00
      0.00000000000000E+00   0.00000000000000E+00   3.21997196772876E-13   7.83598807229879E-21   3.21997204608864E-13
      9.50196110854929E-16  -5.00000000000000E-01  -5.00000000000000E-01   0.00000000000000E+00   0.00000000000000E+00
      0.00000000000000E+00   0.00000000000000E+00   0.00000000000000E+00  -6.49095952235113E-16
      0.00000000000000E+00
      0.00000000000000E+00   0.00000000000000E+00   0.00000000000000E+00   0.00000000000000E+00  -3.22031465775542E-13
     -9.10535621747417E-20  -3.22031556829104E-13   4.48774252864355E-16   1.00000000000000E+00   1.00000000000000E+00
      0.00000000000000E+00   0.00000000000000E+00   3.22039435988929E-13   7.83598807221855E-21   3.22039443824917E-13
      9.50196110632169E-16  -5.00000000000000E-01  -5.00000000000000E-01   0.00000000000000E+00   0.00000000000000E+00
      0.00000000000000E+00   0.00000000000000E+00   0.00000000000000E+00  -6.49095954463120E-16
      1.00000000000000E-03
      0.00000000000000E+00   0.00000000000000E+00   0.00000000000000E+00   0.00000000000000E+00  -3.24464951088988E-13
     -9.10909653877625E-20  -3.24465042179953E-13   4.48615563611374E-16   1.00000000000000E+00   1.00000000000000E+00
      0.00000000000000E+00   0.00000000000000E+00   3.24485265811595E-13   7.83596709837231E-21   3.24485273647562E-13
      9.49793684668482E-16  -4.98000000000000E-01  -4.98000000000000E-01   0.00000000000000E+00   0.00000000000000E+00
      0.00000000000000E+00   0.00000000000000E+00   0.00000000000000E+00  -6.47466418653015E-16
      2.17333333333333E-03
      0.00000000000000E+00   0.00000000000000E+00   0.00000000000000E+00   0.00000000000000E+00  -3.27384674700343E-13
     -9.11384107432155E-20  -3.27384765838753E-13   4.48428533542239E-16   1.00000000000000E+00   1.00000000000000E+00
      0.00000000000000E+00   0.00000000000000E+00   3.27417796941901E-13   7.83594233825935E-21   3.27417804777843E-13
      9.49320860261454E-16  -4.95653333333333E-01  -4.95653333333333E-01   0.00000000000000E+00   0.00000000000000E+00
      0.00000000000000E+00   0.00000000000000E+00   0.00000000000000E+00  -6.45560113379235E-16
      3.56568888888889E-03
      0.00000000000000E+00   0.00000000000000E+00   0.00000000000000E+00   0.00000000000000E+00  -3.30944175221295E-13
     -9.11999924706562E-20  -3.30944266421288E-13   4.48205399101428E-16   1.00000000000000E+00   1.00000000000000E+00
      0.00000000000000E+00   0.00000000000000E+00   3.30951821814780E-13   7.83591274173897E-21   3.30951829650692E-13
      9.48758868547181E-16  -4.92868622222222E-01  -4.92868622222222E-01   0.00000000000000E+00   0.00000000000000E+00
      0.00000000000000E+00   0.00000000000000E+00   0.00000000000000E+00  -6.43306047103600E-16
      5.21795081481481E-03
      0.00000000000000E+00   0.00000000000000E+00   0.00000000000000E+00   0.00000000000000E+00  -3.35264939755982E-13
     -9.12804949521190E-20  -3.35265031036477E-13   4.47938909168490E-16   1.00000000000000E+00   1.00000000000000E+00
      0.00000000000000E+00   0.00000000000000E+00   3.35216379527204E-13   7.83587731530650E-21   3.35216387363081E-13
      9.48090694097236E-16  -4.89564098370370E-01  -4.89564098370370E-01   0.00000000000000E+00   0.00000000000000E+00
      0.00000000000000E+00   0.00000000000000E+00   0.00000000000000E+00  -6.40642741739403E-16
      7.17863496691358E-03
      0.00000000000000E+00   0.00000000000000E+00   0.00000000000000E+00   0.00000000000000E+00  -3.40502612563257E-13
     -9.13866121529178E-20  -3.40502703949869E-13   4.47620228727413E-16   1.00000000000000E+00   1.00000000000000E+00
      0.00000000000000E+00   0.00000000000000E+00   3.40458924793431E-13   7.83583483981540E-21   3.40458932629266E-13
      9.47295989784914E-16  -4.85642730066173E-01  -4.85642730066173E-01   0.00000000000000E+00   0.00000000000000E+00
      0.00000000000000E+00   0.00000000000000E+00   0.00000000000000E+00  -6.37498771168171E-16
      9.50531349407078E-03
      0.00000000000000E+00   0.00000000000000E+00   0.00000000000000E+00   0.00000000000000E+00  -3.46893713925793E-13
     -9.15276276209304E-20  -3.46893805453421E-13   4.47238538956342E-16   1.00000000000000E+00   1.00000000000000E+00
      0.00000000000000E+00   0.00000000000000E+00   3.46938644200449E-13   7.83578381041053E-21   3.46938652036233E-13
      9.46350389265491E-16  -4.80989373011858E-01  -4.80989373011858E-01   0.00000000000000E+00   0.00000000000000E+00
      0.00000000000000E+00   0.00000000000000E+00   0.00000000000000E+00  -6.33791598065685E-16
      1.22663053462973E-02
      0.00000000000000E+00   0.00000000000000E+00   0.00000000000000E+00   0.00000000000000E+00  -3.54875526616119E-13
     -9.17164781244540E-20  -3.54875618332598E-13   4.46780507676294E-16   1.00000000000000E+00   1.00000000000000E+00
      0.00000000000000E+00   0.00000000000000E+00   3.54926933372548E-13   7.83572235563862E-21   3.54926941208271E-13
      9.45224658765363E-16  -4.75467389307405E-01  -4.75467389307405E-01   0.00000000000000E+00   0.00000000000000E+00
      0.00000000000000E+00   0.00000000000000E+00   0.00000000000000E+00  -6.29426561320047E-16
      1.55426823442728E-02
      0.00000000000000E+00   0.00000000000000E+00   0.00000000000000E+00   0.00000000000000E+00  -3.64762976361560E-13
     -9.19711864152381E-20  -3.64763068332746E-13   4.46229581905105E-16   1.00000000000000E+00   1.00000000000000E+00
      0.00000000000000E+00   0.00000000000000E+00   3.64788313532898E-13   7.83564812739949E-21   3.64788321368546E-13
      9.43883643108117E-16  -4.68914635311454E-01  -4.68914635311454E-01   0.00000000000000E+00   0.00000000000000E+00
      0.00000000000000E+00   0.00000000000000E+00   0.00000000000000E+00  -6.24296223279519E-16
      1.94306497152037E-02
      0.00000000000000E+00   0.00000000000000E+00   0.00000000000000E+00   0.00000000000000E+00  -3.77251981871155E-13
     -9.23167741404869E-20  -3.77252074187929E-13   4.45565026304834E-16   1.00000000000000E+00   1.00000000000000E+00
      0.00000000000000E+00   0.00000000000000E+00   3.77272640035093E-13   7.83555814790643E-21   3.77272647870651E-13
      9.42284939583951E-16  -4.61138700569592E-01  -4.61138700569592E-01   0.00000000000000E+00   0.00000000000000E+00
      0.00000000000000E+00   0.00000000000000E+00   0.00000000000000E+00  -6.18280471111776E-16
      2.39925314304294E-02
      0.00000000000000E+00   0.00000000000000E+00   0.00000000000000E+00   0.00000000000000E+00  -3.93011408571152E-13
     -9.27821753630459E-20  -3.93011501353327E-13   4.44769727960843E-16   1.00000000000000E+00   1.00000000000000E+00
      0.00000000000000E+00   0.00000000000000E+00   3.93012136003366E-13   7.83544983954823E-21   3.93012143838815E-13
      9.40398701709817E-16  -4.52014937139141E-01  -4.52014937139141E-01   0.00000000000000E+00   0.00000000000000E+00
      0.00000000000000E+00   0.00000000000000E+00   0.00000000000000E+00  -6.11326421883477E-16
      2.93451393096274E-02
      0.00000000000000E+00   0.00000000000000E+00   0.00000000000000E+00   0.00000000000000E+00  -4.13115967712329E-13
     -9.34097847609345E-20  -4.13116061122114E-13   4.43814156179411E-16   1.00000000000000E+00   1.00000000000000E+00
      0.00000000000000E+00   0.00000000000000E+00   4.13106299652227E-13   7.83531880308944E-21   4.13106307487545E-13
      9.38170697947809E-16  -4.41309721380745E-01  -4.41309721380745E-01   0.00000000000000E+00   0.00000000000000E+00
      0.00000000000000E+00   0.00000000000000E+00   0.00000000000000E+00  -6.03318551373588E-16
      3.56255325545532E-02
      0.00000000000000E+00   0.00000000000000E+00   0.00000000000000E+00   0.00000000000000E+00  -4.39392143330994E-13
     -9.42561076712632E-20  -4.39392237587101E-13   4.42660444295725E-16   1.00000000000000E+00   1.00000000000000E+00
      0.00000000000000E+00   0.00000000000000E+00   4.39377494407177E-13   7.83515926696982E-21   4.39377502242337E-13
      9.35535198349801E-16  -4.28748934890894E-01  -4.28748934890894E-01   0.00000000000000E+00   0.00000000000000E+00
      0.00000000000000E+00   0.00000000000000E+00   0.00000000000000E+00  -5.94144917835371E-16
      4.29945272952660E-02
      0.00000000000000E+00   0.00000000000000E+00   0.00000000000000E+00   0.00000000000000E+00  -4.74509343892422E-13
     -9.53979232370895E-20  -4.74509439290346E-13   4.41259330460264E-16   1.00000000000000E+00   1.00000000000000E+00
      0.00000000000000E+00   0.00000000000000E+00   4.74505231853562E-13   7.83496349862847E-21   4.74505239688525E-13
      9.32411799407676E-16  -4.14010945409468E-01  -4.14010945409468E-01   0.00000000000000E+00   0.00000000000000E+00
      0.00000000000000E+00   0.00000000000000E+00   0.00000000000000E+00  -5.83711175410181E-16
      5.16408144577024E-02
      0.00000000000000E+00   0.00000000000000E+00   0.00000000000000E+00   0.00000000000000E+00  -5.22859380599176E-13
     -9.69494952140740E-20  -5.22859477548672E-13   4.39545699883542E-16   1.00000000000000E+00   1.00000000000000E+00