DF-ISE text

Info {
  version   = 1.0
  type      = xyplot
  datasets  = [
    "time"
    "S OuterVoltage" "S InnerVoltage" "S QuasiFermiPotential" "S DisplacementCurrent" "S eCurrent"
    "S hCurrent" "S TotalCurrent" "S Charge" "D OuterVoltage" "D InnerVoltage"
    "D QuasiFermiPotential" "D DisplacementCurrent" "D eCurrent" "D hCurrent" "D TotalCurrent"
    "D Charge" "G OuterVoltage" "G InnerVoltage" "G QuasiFermiPotential" "G DisplacementCurrent"
    "G eCurrent" "G hCurrent" "G TotalCurrent" "G Charge" ]
  functions = [
    Time
    OuterVoltage InnerVoltage QuasiFermiPotential DisplacementCurrent eCurrent
    hCurrent TotalCurrent Charge OuterVoltage InnerVoltage
    QuasiFermiPotential DisplacementCurrent eCurrent hCurrent TotalCurrent
    Charge OuterVoltage InnerVoltage QuasiFermiPotential DisplacementCurrent
    eCurrent hCurrent TotalCurrent Charge ]
}

Data {
      0.00000000000000E+00
      0.00000000000000E+00   0.00000000000000E+00   0.00000000000000E+00   0.00000000000000E+00   2.95611916527416E-18
     -3.88067785254253E-35   2.95611916527416E-18   8.03546470062448E-16   0.00000000000000E+00   0.00000000000000E+00
      0.00000000000000E+00   0.00000000000000E+00   3.01277363294045E-18  -3.43799641899283E-35   3.01277363294045E-18
      9.78759358951050E-16  -5.00000000000000E-01  -5.00000000000000E-01   0.00000000000000E+00   0.00000000000000E+00
      0.00000000000000E+00   0.00000000000000E+00   0.00000000000000E+00  -4.08521001172068E-16
      0.00000000000000E+00
      0.00000000000000E+00   0.00000000000000E+00   0.00000000000000E+00   0.00000000000000E+00  -1.04264210580034E-17
      3.88724953091981E-31  -1.04264210580030E-17   8.03546465646184E-16   0.00000000000000E+00   0.00000000000000E+00
      0.00000000000000E+00   0.00000000000000E+00   1.18974988561623E-17   3.88729327771775E-31   1.18974988561627E-17
      9.78759354041649E-16  -5.00000000000000E-01  -5.00000000000000E-01   0.00000000000000E+00   0.00000000000000E+00
      0.00000000000000E+00   0.00000000000000E+00   0.00000000000000E+00  -4.08521001176016E-16
      1.00000000000000E-03
      0.00000000000000E+00   0.00000000000000E+00   0.00000000000000E+00   0.00000000000000E+00  -1.16412667387037E-17
     -1.30391178290407E-22  -1.16413971298820E-17   8.03380433982923E-16   1.00000000000000E-03   1.00000000000000E-03
      0.00000000000000E+00   0.00000000000000E+00  -1.70009495400164E-17   2.31595635393438E-22  -1.70007179443810E-17
      9.79242725029956E-16  -5.00000000000000E-01  -5.00000000000000E-01   0.00000000000000E+00   0.00000000000000E+00
      0.00000000000000E+00   0.00000000000000E+00   0.00000000000000E+00  -4.08934287485535E-16
      2.17333333333333E-03
      0.00000000000000E+00   0.00000000000000E+00   0.00000000000000E+00   0.00000000000000E+00  -6.61512837202395E-18
     -2.83345602850336E-22  -6.61541171762680E-18   8.03188430688244E-16   2.17333333333333E-03   2.17333333333333E-03
      0.00000000000000E+00   0.00000000000000E+00   2.54548097915553E-17   4.98216183527273E-22   2.54553080077388E-17
      9.79812618799773E-16  -5.00000000000000E-01  -5.00000000000000E-01   0.00000000000000E+00   0.00000000000000E+00
      0.00000000000000E+00   0.00000000000000E+00   0.00000000000000E+00  -4.09415155816641E-16
      3.56568888888889E-03
      0.00000000000000E+00   0.00000000000000E+00   0.00000000000000E+00   0.00000000000000E+00   1.66729406775547E-17
     -4.64723526717385E-22   1.66724759540279E-17   8.02964486624970E-16   3.56568888888889E-03   3.56568888888889E-03
      0.00000000000000E+00   0.00000000000000E+00  -5.27522308818083E-18   8.07434143544342E-22  -5.27441565403728E-18
      9.80492678318484E-16  -5.00000000000000E-01  -5.00000000000000E-01   0.00000000000000E+00   0.00000000000000E+00
      0.00000000000000E+00   0.00000000000000E+00   0.00000000000000E+00  -4.09980151579153E-16
      5.21795081481481E-03
      0.00000000000000E+00   0.00000000000000E+00   0.00000000000000E+00   0.00000000000000E+00  -1.54040449336945E-17
     -6.79638515302095E-22  -1.54047245722098E-17   8.02704196825734E-16   5.21795081481481E-03   5.21795081481481E-03
      0.00000000000000E+00   0.00000000000000E+00  -2.39466560386363E-17   1.16430287899781E-21  -2.39454917357573E-17
      9.81304949388187E-16  -5.00000000000000E-01  -5.00000000000000E-01   0.00000000000000E+00   0.00000000000000E+00
      0.00000000000000E+00   0.00000000000000E+00   0.00000000000000E+00  -4.10642724772168E-16
      7.17863496691358E-03
      0.00000000000000E+00   0.00000000000000E+00   0.00000000000000E+00   0.00000000000000E+00  -4.72440150714021E-18
     -9.34032047419461E-22  -4.72533553918763E-18   8.02402893185138E-16   7.17863496691358E-03   7.17863496691358E-03
      0.00000000000000E+00   0.00000000000000E+00   5.83524012620146E-18   1.57364751691812E-21   5.83681377371837E-18
      9.82276100624832E-16  -5.00000000000000E-01  -5.00000000000000E-01   0.00000000000000E+00   0.00000000000000E+00
      0.00000000000000E+00   0.00000000000000E+00   0.00000000000000E+00  -4.11418024853200E-16
      9.50531349407078E-03
      0.00000000000000E+00   0.00000000000000E+00   0.00000000000000E+00   0.00000000000000E+00   8.16032698146554E-18
     -1.23467579994333E-21   8.15909230566559E-18   8.02055858779261E-16   9.50531349407078E-03   9.50531349407078E-03
      0.00000000000000E+00   0.00000000000000E+00   2.77084380557413E-18   2.03963834297577E-21   2.77288344391711E-18
      9.83438518107874E-16  -5.00000000000000E-01  -5.00000000000000E-01   0.00000000000000E+00   0.00000000000000E+00
      0.00000000000000E+00   0.00000000000000E+00   0.00000000000000E+00  -4.12322834931035E-16
      1.22663053462973E-02
      0.00000000000000E+00   0.00000000000000E+00   0.00000000000000E+00   0.00000000000000E+00  -2.19535148133883E-17
     -1.58915934654754E-21  -2.19551039727349E-17   8.01658577424825E-16   1.22663053462973E-02   1.22663053462973E-02
      0.00000000000000E+00   0.00000000000000E+00  -7.78494142732314E-18   2.56511302168433E-21  -7.78237631430146E-18
      9.84831576092614E-16  -5.00000000000000E-01  -5.00000000000000E-01   0.00000000000000E+00   0.00000000000000E+00
      0.00000000000000E+00   0.00000000000000E+00   0.00000000000000E+00  -4.13375499523403E-16
      1.55426823442728E-02
      0.00000000000000E+00   0.00000000000000E+00   0.00000000000000E+00   0.00000000000000E+00  -6.79451505739478E-18
     -2.00578219269890E-21  -6.79652083958748E-18   8.01207088776139E-16   1.55426823442728E-02   1.55426823442728E-02
      0.00000000000000E+00   0.00000000000000E+00   8.94920170253133E-18   3.15064451106281E-21   8.95235234704239E-18
      9.86503168935816E-16  -5.00000000000000E-01  -5.00000000000000E-01   0.00000000000000E+00   0.00000000000000E+00
      0.00000000000000E+00   0.00000000000000E+00   0.00000000000000E+00  -4.14595752315262E-16
      1.94306497152037E-02
      0.00000000000000E+00   0.00000000000000E+00   0.00000000000000E+00   0.00000000000000E+00  -1.78048899640245E-17
     -2.49324835129868E-21  -1.78073832123758E-17   8.00698507976784E-16   1.94306497152037E-02   1.94306497152037E-02
      0.00000000000000E+00   0.00000000000000E+00   2.27933475972486E-17   3.79336507884494E-21   2.27971409623275E-17
      9.88511571901066E-16  -5.00000000000000E-01  -5.00000000000000E-01   0.00000000000000E+00   0.00000000000000E+00
      0.00000000000000E+00   0.00000000000000E+00   0.00000000000000E+00  -4.16004368386083E-16
      2.40443709953751E-02
      0.00000000000000E+00   0.00000000000000E+00   0.00000000000000E+00   0.00000000000000E+00  -1.51725251152617E-17
     -3.06008302418041E-21  -1.51755851982859E-17   8.00131700761129E-16   2.40443709953751E-02   2.40443709953751E-02
      0.00000000000000E+00   0.00000000000000E+00   1.16110462050280E-17   4.48558937239145E-21   1.16155317944004E-17
      9.90927619331877E-16  -5.00000000000000E-01  -5.00000000000000E-01   0.00000000000000E+00   0.00000000000000E+00
      0.00000000000000E+00   0.00000000000000E+00   0.00000000000000E+00  -4.17622665194615E-16
      2.95193202478451E-02
      0.00000000000000E+00   0.00000000000000E+00   0.00000000000000E+00   0.00000000000000E+00  -1.16493153473932E-17
     -3.71386335443237E-21  -1.16530292107476E-17   7.99507906940410E-16   2.95193202478451E-02   2.95193202478451E-02
      0.00000000000000E+00   0.00000000000000E+00  -4.70647417038955E-18   5.21335911091949E-21  -4.70126081127863E-18
      9.93836971235420E-16  -5.00000000000000E-01  -5.00000000000000E-01   0.00000000000000E+00   0.00000000000000E+00
      0.00000000000000E+00   0.00000000000000E+00   0.00000000000000E+00  -4.19472169469677E-16
      3.59432607040766E-02
      0.00000000000000E+00   0.00000000000000E+00   0.00000000000000E+00   0.00000000000000E+00  -3.55774507365626E-18
     -4.45183561499632E-21  -3.56219690927126E-18   7.98838665534019E-16   3.59432607040766E-02   3.59432607040766E-02
      0.00000000000000E+00   0.00000000000000E+00   2.98728962483546E-17   5.94778440113096E-21   2.98788440327558E-17
      9.97302864044134E-16  -5.00000000000000E-01  -5.00000000000000E-01   0.00000000000000E+00   0.00000000000000E+00
      0.00000000000000E+00   0.00000000000000E+00   0.00000000000000E+00  -4.21551208311655E-16
      4.34806841727216E-02
      0.00000000000000E+00   0.00000000000000E+00   0.00000000000000E+00   0.00000000000000E+00  -1.95736656976978E-17
     -5.27482870399237E-21  -1.95789405264018E-17   7.98131501974679E-16   4.34806841727216E-02   4.34806841727216E-02
      0.00000000000000E+00   0.00000000000000E+00   2.09951502438298E-17   6.66246479003373E-21   2.10018127086198E-17
      1.00143113731877E-15  -5.00000000000000E-01  -5.00000000000000E-01   0.00000000000000E+00   0.00000000000000E+00
      0.00000000000000E+00   0.00000000000000E+00   0.00000000000000E+00  -4.23877146740429E-16
      5.24250933555136E-02
      0.00000000000000E+00   0.00000000000000E+00   0.00000000000000E+00   0.00000000000000E+00  -1.93682821503260E-19
     -6.19068153044045E-21  -1.99873503033700E-19   7.97387879967504E-16   5.24250933555136E-02   5.24250933555136E-02
      0.00000000000000E+00   0.00000000000000E+00   3.99742218171652E-17   7.33367317601399E-21   3.99815554903412E-17
      1.00639944834071E-15  -5.00000000000000E-01  -5.00000000000000E-01   0.00000000000000E+00   0.00000000000000E+00
      0.00000000000000E+00   0.00000000000000E+00   0.00000000000000E+00  -4.26498384094588E-16
      6.29198667966562E-02
      0.00000000000000E+00   0.00000000000000E+00   0.00000000000000E+00   0.00000000000000E+00  -1.84727813007597E-17
     -7.18603877080250E-21  -1.84799673395305E-17   7.96625652461801E-16   6.29198667966562E-02   6.29198667966562E-02
      0.00000000000000E+00   0.00000000000000E+00   3.28877080944011E-17   7.92158883274183E-21   3.28956296832338E-17
      1.01229888765541E-15  -5.00000000000000E-01  -5.00000000000000E-01   0.00000000000000E+00   0.00000000000000E+00
      0.00000000000000E+00   0.00000000000000E+00   0.00000000000000E+00  -4.29413678370512E-16
      7.52337343009302E-02
      0.00000000000000E+00   0.00000000000000E+00   0.00000000000000E+00   0.00000000000000E+00  -3.76277410650145E-17
     -8.26148043863407E-21  -3.76360025454531E-17   7.95849683555198E-16   7.52337343009302E-02   7.52337343009302E-02
      0.00000000000000E+00   0.00000000000000E+00   2.21357497915405E-17   8.40100856187232E-21   2.21441508001023E-17
      1.01927853461230E-15  -5.00000000000000E-01  -5.00000000000000E-01   0.00000000000000E+00   0.00000000000000E+00
      0.00000000000000E+00   0.00000000000000E+00   0.00000000000000E+00  -4.32662323512869E-16
      8.96820055059450E-02
      0.00000000000000E+00   0.00000000000000E+00   0.00000000000000E+00   0.00000000000000E+00  -4.58829054597659E-17
     -9.43212153311279E-21  -4.58923375812990E-17   7.95054653202940E-16   8.96820055059450E-02   8.96820055059450E-02
      0.00000000000000E+00   0.00000000000000E+00   4.11425377269421E-17   8.75751688588722E-21   4.11512952438280E-17
      1.02749428953783E-15  -5.00000000000000E-01  -5.00000000000000E-01   0.00000000000000E+00   0.00000000000000E+00
      0.00000000000000E+00   0.00000000000000E+00   0.00000000000000E+00  -4.36306526071192E-16
      1.06634643719829E-01
      0.00000000000000E+00   0.00000000000000E+00   0.00000000000000E+00   0.00000000000000E+00  -3.33143171354750E-17
     -1.07429767283179E-20  -3.33250601122033E-17   7.94218578156092E-16   1.06634643719829E-01   1.06634643719829E-01
      0.00000000000000E+00   0.00000000000000E+00   4.61928860279421E-17   8.98932777780623E-21   4.62018753557200E-17
      1.03710424785321E-15  -5.00000000000000E-01  -5.00000000000000E-01   0.00000000000000E+00   0.00000000000000E+00
      0.00000000000000E+00   0.00000000000000E+00   0.00000000000000E+00  -4.40442173731922E-16
      1.26525739224120E-01
      0.00000000000000E+00   0.00000000000000E+00   0.00000000000000E+00   0.00000000000000E+00  -4.99509383866765E-17
     -1.22866061459704E-20  -4.99632249928225E-17   7.93298554310696E-16   1.26525739224120E-01   1.26525739224120E-01
      0.00000000000000E+00   0.00000000000000E+00   3.17469300804216E-17   9.10442257974508E-21   3.17560345030013E-17
      1.04826816466625E-15  -5.00000000000000E-01  -5.00000000000000E-01   0.00000000000000E+00   0.00000000000000E+00
      0.00000000000000E+00   0.00000000000000E+00   0.00000000000000E+00  -4.45206523028657E-16
      1.49864624615821E-01
      0.00000000000000E+00   0.00000000000000E+00   0.00000000000000E+00   0.00000000000000E+00  -5.58575221093365E-17
     -1.42139076251949E-20  -5.58717360169617E-17   7.92234857520315E-16   1.49864624615821E-01   1.49864624615821E-01
      0.00000000000000E+00   0.00000000000000E+00   4.92193717146060E-17   9.11987890500008E-21   4.92284915935110E-17
      1.06115829738394E-15  -5.00000000000000E-01  -5.00000000000000E-01   0.00000000000000E+00   0.00000000000000E+00
      0.00000000000000E+00   0.00000000000000E+00   0.00000000000000E+00  -4.50773980442686E-16
      1.77248916808750E-01
      0.00000000000000E+00   0.00000000000000E+00   0.00000000000000E+00   0.00000000000000E+00  -6.43087420493245E-17
     -1.67100303447359E-20  -6.43254520796693E-17   7.90975906921249E-16   1.77248916808750E-01   1.77248916808750E-01
      0.00000000000000E+00   0.00000000000000E+00   9.78562356427564E-18   9.06658129504979E-21   9.79469014557069E-18
      1.07599328282702E-15  -5.00000000000000E-01  -5.00000000000000E-01   0.00000000000000E+00   0.00000000000000E+00
      0.00000000000000E+00   0.00000000000000E+00   0.00000000000000E+00  -4.57322179409164E-16
      2.09379819648453E-01
      0.00000000000000E+00   0.00000000000000E+00   0.00000000000000E+00   0.00000000000000E+00  -5.40058476746124E-17
     -1.98754092757557E-20  -5.40257230838881E-17   7.89537130360431E-16   2.09379819648453E-01   2.09379819648453E-01
      0.00000000000000E+00   0.00000000000000E+00   6.35523734941903E-17   8.97562168275758E-21   6.35613491158731E-17
      1.09310278024416E-15  -5.00000000000000E-01  -5.00000000000000E-01   0.00000000000000E+00   0.00000000000000E+00
      0.00000000000000E+00   0.00000000000000E+00   0.00000000000000E+00  -4.64950242738169E-16
      2.47080078980372E-01
      0.00000000000000E+00   0.00000000000000E+00   0.00000000000000E+00   0.00000000000000E+00  -7.23910961859056E-17
     -2.35056616244141E-20  -7.24146018475300E-17   7.88059937392986E-16   2.47080078980372E-01   2.47080078980372E-01
      0.00000000000000E+00   0.00000000000000E+00   6.41250028241661E-17   8.86298581627510E-21   6.41338658099824E-17
      1.11298833238357E-15  -5.00000000000000E-01  -5.00000000000000E-01   0.00000000000000E+00   0.00000000000000E+00
      0.00000000000000E+00   0.00000000000000E+00   0.00000000000000E+00  -4.73598943817650E-16
      2.91315049929824E-01
      0.00000000000000E+00   0.00000000000000E+00   0.00000000000000E+00   0.00000000000000E+00  -7.63078156736041E-17
     -2.71162517579455E-20  -7.63349319253621E-17   7.86734539842096E-16   2.91315049929824E-01   2.91315049929824E-01
      0.00000000000000E+00   0.00000000000000E+00   6.55440167302972E-17   8.73515628073056E-21   6.55527518865780E-17
      1.13627322706754E-15  -5.00000000000000E-01  -5.00000000000000E-01   0.00000000000000E+00   0.00000000000000E+00
      0.00000000000000E+00   0.00000000000000E+00   0.00000000000000E+00  -4.83168407356990E-16
      3.42627616231188E-01
      0.00000000000000E+00   0.00000000000000E+00   0.00000000000000E+00   0.00000000000000E+00  -9.91017477944696E-17
     -3.05825658443010E-20  -9.91323303603139E-17   7.85569349428393E-16   3.42627616231188E-01   3.42627616231188E-01
      0.00000000000000E+00   0.00000000000000E+00   1.00681106874542E-16   8.60356647348479E-21   1.00689710441016E-16
      1.16322374300281E-15  -5.00000000000000E-01  -5.00000000000000E-01   0.00000000000000E+00   0.00000000000000E+00
      0.00000000000000E+00   0.00000000000000E+00   0.00000000000000E+00  -4.93750829965148E-16
      4.02150193140769E-01
      0.00000000000000E+00   0.00000000000000E+00   0.00000000000000E+00   0.00000000000000E+00  -1.15288571913474E-16
     -3.47251619391659E-20  -1.15323297075413E-16   7.84295391002327E-16   4.02150193140769E-01   4.02150193140769E-01
      0.00000000000000E+00   0.00000000000000E+00   9.88630173576956E-17   8.51532905569398E-21   9.88715326867513E-17
      1.19423627284655E-15  -5.00000000000000E-01  -5.00000000000000E-01   0.00000000000000E+00   0.00000000000000E+00
      0.00000000000000E+00   0.00000000000000E+00   0.00000000000000E+00  -5.05935844693004E-16
      4.71990016714679E-01
      0.00000000000000E+00   0.00000000000000E+00   0.00000000000000E+00   0.00000000000000E+00  -8.89328873104704E-17
     -4.07381925205035E-20  -8.89736255029909E-17   7.82640906000209E-16   4.71990016714679E-01   4.71990016714679E-01
      0.00000000000000E+00   0.00000000000000E+00   8.78755452619007E-17   8.54145324618013E-21   8.78840867151468E-17
      1.23022351028968E-15  -5.00000000000000E-01  -5.00000000000000E-01   0.00000000000000E+00   0.00000000000000E+00
      0.00000000000000E+00   0.00000000000000E+00   0.00000000000000E+00  -5.20482335752657E-16
      5.53004212060414E-01
      0.00000000000000E+00   0.00000000000000E+00   0.00000000000000E+00   0.00000000000000E+00  -1.10890361470769E-16
     -4.88493811916991E-20  -1.10939210851960E-16   7.80688415419521E-16   5.53004212060414E-01   5.53004212060414E-01
      0.00000000000000E+00   0.00000000000000E+00   1.09003794495026E-16   8.59880618948994E-21   1.09012393301216E-16
      1.27166830369316E-15  -5.00000000000000E-01  -5.00000000000000E-01   0.00000000000000E+00   0.00000000000000E+00
      0.00000000000000E+00   0.00000000000000E+00   0.00000000000000E+00  -5.37434335624765E-16
      6.46980678661466E-01
      0.00000000000000E+00   0.00000000000000E+00   0.00000000000000E+00   0.00000000000000E+00  -1.10860193163697E-16
     -6.12736653772658E-20  -1.10921466829074E-16   7.78161523800659E-16   6.46980678661466E-01   6.46980678661466E-01
      0.00000000000000E+00   0.00000000000000E+00   1.04919394621374E-16   8.65267686145158E-21   1.04928047298236E-16
      1.31925855276400E-15  -5.00000000000000E-01  -5.00000000000000E-01   0.00000000000000E+00   0.00000000000000E+00
      0.00000000000000E+00   0.00000000000000E+00   0.00000000000000E+00  -5.57492840117266E-16
      7.57246399473368E-01
      0.00000000000000E+00   0.00000000000000E+00   0.00000000000000E+00   0.00000000000000E+00  -1.86820183988526E-16
     -9.15018949186417E-20  -1.86911685883445E-16   7.73520830641298E-16   7.57246399473368E-01   7.57246399473368E-01
      0.00000000000000E+00   0.00000000000000E+00   1.49425375574815E-16   8.70314199068993E-21   1.49434078716806E-16
      1.37358730379558E-15  -5.00000000000000E-01  -5.00000000000000E-01   0.00000000000000E+00   0.00000000000000E+00
      0.00000000000000E+00   0.00000000000000E+00   0.00000000000000E+00  -5.83314083585752E-16
      8.85154635615174E-01
      0.00000000000000E+00   0.00000000000000E+00   0.00000000000000E+00   0.00000000000000E+00  -3.03945853780963E-16
     -2.01469135764346E-19  -3.04147322916728E-16   7.63890240506137E-16   8.85154635615174E-01   8.85154635615174E-01
      0.00000000000000E+00   0.00000000000000E+00   2.80235879514340E-16   8.74913005097149E-21   2.80244628644391E-16
      1.43335306652344E-15  -5.00000000000000E-01  -5.00000000000000E-01   0.00000000000000E+00   0.00000000000000E+00
      0.00000000000000E+00   0.00000000000000E+00   0.00000000000000E+00  -6.18895163403723E-16
      1.00000000000000E+00
      0.00000000000000E+00   0.00000000000000E+00   0.00000000000000E+00   0.00000000000000E+00  -4.55585638952007E-16
     -3.91659720194554E-19  -4.55977298672201E-16   7.55372230731632E-16   1.00000000000000E+00   1.00000000000000E+00
      0.00000000000000E+00   0.00000000000000E+00   4.60059161407499E-16   8.78489380527579E-21   4.60067946301305E-16
      1.48683993974222E-15  -5.00000000000000E-01  -5.00000000000000E-01   0.00000000000000E+00   0.00000000000000E+00
      0.00000000000000E+00   0.00000000000000E+00   0.00000000000000E+00  -6.50536481272508E-16
      0.00000000000000E+00
      0.00000000000000E+00   0.00000000000000E+00   0.00000000000000E+00   0.00000000000000E+00  -4.61024803986486E-16
     -3.91660361799499E-19  -4.61416464348286E-16   7.55372209723773E-16   1.00000000000000E+00   1.00000000000000E+00
      0.00000000000000E+00   0.00000000000000E+00   4.17308967095733E-16   8.78489379125486E-21   4.17317751989524E-16
      1.48683992589067E-15  -5.00000000000000E-01  -5.00000000000000E-01   0.00000000000000E+00   0.00000000000000E+00
      0.00000000000000E+00   0.00000000000000E+00   0.00000000000000E+00  -6.50536509262328E-16
      1.00000000000000E-03
      0.00000000000000E+00   0.00000000000000E+00   0.00000000000000E+00   0.00000000000000E+00  -4.25064738451264E-16
     -3.89326908768290E-19  -4.25454065360032E-16   7.55333661689783E-16   1.00000000000000E+00   1.00000000000000E+00
      0.00000000000000E+00   0.00000000000000E+00   4.54017876534486E-16   8.78494449631676E-21   4.54026661478982E-16
      1.48653473537928E-15  -4.98000000000000E-01  -4.98000000000000E-01   0.00000000000000E+00   0.00000000000000E+00
      0.00000000000000E+00   0.00000000000000E+00   0.00000000000000E+00  -6.48613827955706E-16
      2.16000000000000E-03
      0.00000000000000E+00   0.00000000000000E+00   0.00000000000000E+00   0.00000000000000E+00  -4.26130483994233E-16
     -3.86655872293411E-19  -4.26517139866526E-16   7.55287992038547E-16   1.00000000000000E+00   1.00000000000000E+00
      0.00000000000000E+00   0.00000000000000E+00   4.49549919552715E-16   8.78500288223876E-21   4.49558704555597E-16
      1.48617964734365E-15  -4.95680000000000E-01  -4.95680000000000E-01   0.00000000000000E+00   0.00000000000000E+00
      0.00000000000000E+00   0.00000000000000E+00   0.00000000000000E+00  -6.46388893417417E-16
      3.53653333333333E-03
      0.00000000000000E+00   0.00000000000000E+00   0.00000000000000E+00   0.00000000000000E+00  -4.39975325843267E-16
     -3.83535296336083E-19  -4.40358861139603E-16   7.55232465983492E-16   1.00000000000000E+00   1.00000000000000E+00
      0.00000000000000E+00   0.00000000000000E+00   4.61898225743997E-16   8.78507156750778E-21   4.61907010815565E-16
      1.48575679452962E-15  -4.92926933333333E-01  -4.92926933333333E-01   0.00000000000000E+00   0.00000000000000E+00
      0.00000000000000E+00   0.00000000000000E+00   0.00000000000000E+00  -6.43756153034685E-16
      5.17001955555556E-03
      0.00000000000000E+00   0.00000000000000E+00   0.00000000000000E+00   0.00000000000000E+00  -4.22293831399965E-16
     -3.79900862508724E-19  -4.22673732262474E-16   7.55164667517002E-16   1.00000000000000E+00   1.00000000000000E+00
      0.00000000000000E+00   0.00000000000000E+00   4.11895132299002E-16   8.78515221496666E-21   4.11903917451217E-16
      1.48525291338840E-15  -4.89659960888889E-01  -4.89659960888889E-01   0.00000000000000E+00   0.00000000000000E+00
      0.00000000000000E+00   0.00000000000000E+00   0.00000000000000E+00  -6.40642625974928E-16
      7.10842320592592E-03
      0.00000000000000E+00   0.00000000000000E+00   0.00000000000000E+00   0.00000000000000E+00  -4.58568864936876E-16
     -3.75683772169218E-19  -4.58944548709046E-16   7.55081478461489E-16   1.00000000000000E+00   1.00000000000000E+00
      0.00000000000000E+00   0.00000000000000E+00   4.42215732675336E-16   8.78524668607977E-21   4.42224517922022E-16
      1.48465201379942E-15  -4.85783153588148E-01  -4.85783153588148E-01   0.00000000000000E+00   0.00000000000000E+00
      0.00000000000000E+00   0.00000000000000E+00   0.00000000000000E+00  -6.36963027564930E-16
      9.40866220436543E-03
      0.00000000000000E+00   0.00000000000000E+00   0.00000000000000E+00   0.00000000000000E+00  -4.49287164975415E-16
     -3.70812897382182E-19  -4.49657977872797E-16   7.54978826262423E-16   1.00000000000000E+00   1.00000000000000E+00
      0.00000000000000E+00   0.00000000000000E+00   4.31858703050037E-16   8.78535702363934E-21   4.31867488407061E-16
      1.48393476468595E-15  -4.81182675591269E-01  -4.81182675591269E-01   0.00000000000000E+00   0.00000000000000E+00
      0.00000000000000E+00   0.00000000000000E+00   0.00000000000000E+00  -6.32618040536382E-16
      1.21382791491803E-02
      0.00000000000000E+00   0.00000000000000E+00   0.00000000000000E+00   0.00000000000000E+00  -4.38235336261868E-16
     -3.65217828210680E-19  -4.38600554090079E-16   7.54851345493247E-16   1.00000000000000E+00   1.00000000000000E+00
      0.00000000000000E+00   0.00000000000000E+00   4.62332484134115E-16   8.78548541874593E-21   4.62341269619534E-16
      1.48307773655505E-15  -4.75723441701639E-01  -4.75723441701639E-01   0.00000000000000E+00   0.00000000000000E+00
      0.00000000000000E+00   0.00000000000000E+00   0.00000000000000E+00  -6.27492481912405E-16
      1.53774245903606E-02
      0.00000000000000E+00   0.00000000000000E+00   0.00000000000000E+00   0.00000000000000E+00  -4.74347594305198E-16
     -3.58834478279414E-19  -4.74706428783477E-16   7.54691867428565E-16   1.00000000000000E+00   1.00000000000000E+00
      0.00000000000000E+00   0.00000000000000E+00   4.36607163167374E-16   8.78563412052109E-21   4.36615948801494E-16
      1.48205243399991E-15  -4.69245150819279E-01  -4.69245150819279E-01   0.00000000000000E+00   0.00000000000000E+00
      0.00000000000000E+00   0.00000000000000E+00   0.00000000000000E+00  -6.21453504463435E-16
      1.92212105138946E-02
      0.00000000000000E+00   0.00000000000000E+00   0.00000000000000E+00   0.00000000000000E+00  -4.51084603909892E-16
     -3.51614211914492E-19  -4.51436218121806E-16   7.54490653667435E-16   1.00000000000000E+00   1.00000000000000E+00
      0.00000000000000E+00   0.00000000000000E+00   4.35527170639910E-16   8.78580525607500E-21   4.35535956445166E-16
      1.48082405722068E-15  -4.61557578972211E-01  -4.61557578972211E-01   0.00000000000000E+00   0.00000000000000E+00
      0.00000000000000E+00   0.00000000000000E+00   0.00000000000000E+00  -6.14349003602030E-16
      2.37312526641745E-02
      0.00000000000000E+00   0.00000000000000E+00   0.00000000000000E+00   0.00000000000000E+00  -4.35905093234320E-16
     -3.43616674526162E-19  -4.36248709908846E-16   7.54237561922972E-16   1.00000000000000E+00   1.00000000000000E+00
      0.00000000000000E+00   0.00000000000000E+00   4.85903376758264E-16   8.78599858495420E-21   4.85912162756849E-16
      1.47936678880479E-15  -4.52537494671651E-01  -4.52537494671651E-01   0.00000000000000E+00   0.00000000000000E+00
      0.00000000000000E+00   0.00000000000000E+00   0.00000000000000E+00  -6.06099317139411E-16
      2.90230354538362E-02
      0.00000000000000E+00   0.00000000000000E+00   0.00000000000000E+00   0.00000000000000E+00  -4.44648026809482E-16
     -3.34867766480852E-19  -4.44982894575963E-16   7.53916180170869E-16   1.00000000000000E+00   1.00000000000000E+00
      0.00000000000000E+00   0.00000000000000E+00   4.75821924777406E-16   8.78621479450623E-21   4.75830710992201E-16
      1.47763511460969E-15  -4.41953929092328E-01  -4.41953929092328E-01   0.00000000000000E+00   0.00000000000000E+00
      0.00000000000000E+00   0.00000000000000E+00   0.00000000000000E+00  -5.96540172081832E-16
      3.52320605937060E-02
      0.00000000000000E+00   0.00000000000000E+00   0.00000000000000E+00   0.00000000000000E+00  -4.31780736883915E-16
     -3.25445681552975E-19  -4.32106182565468E-16   7.53503914206423E-16   1.00000000000000E+00   1.00000000000000E+00
      0.00000000000000E+00   0.00000000000000E+00   4.92134566536300E-16   8.78645338547282E-21   4.92143352989686E-16
      1.47557364815353E-15  -4.29535878812588E-01  -4.29535878812588E-01   0.00000000000000E+00   0.00000000000000E+00
      0.00000000000000E+00   0.00000000000000E+00   0.00000000000000E+00  -5.85493027297421E-16
      4.25173167578198E-02
      0.00000000000000E+00   0.00000000000000E+00   0.00000000000000E+00   0.00000000000000E+00  -4.13741267515947E-16
     -3.15506217829461E-19  -4.14056773733777E-16   7.52969139802878E-16   1.00000000000000E+00   1.00000000000000E+00
      0.00000000000000E+00   0.00000000000000E+00   4.61555235991131E-16   8.78671181258283E-21   4.61564022702944E-16
      1.47311462008165E-15  -4.14965366484360E-01  -4.14965366484360E-01   0.00000000000000E+00   0.00000000000000E+00
      0.00000000000000E+00   0.00000000000000E+00   0.00000000000000E+00  -5.72769865929521E-16
      5.10653506570467E-02
      0.00000000000000E+00   0.00000000000000E+00   0.00000000000000E+00   0.00000000000000E+00  -4.65375947019986E-16
     -3.05318404571407E-19  -4.65681265424557E-16   7.52266873203392E-16   1.00000000000000E+00   1.00000000000000E+00