DF-ISE text

Info {
  version   = 1.0
  type      = xyplot
  datasets  = [
    "time"
    "S OuterVoltage" "S InnerVoltage" "S QuasiFermiPotential" "S DisplacementCurrent" "S eCurrent"
    "S hCurrent" "S TotalCurrent" "S Charge" "D OuterVoltage" "D InnerVoltage"
    "D QuasiFermiPotential" "D DisplacementCurrent" "D eCurrent" "D hCurrent" "D TotalCurrent"
    "D Charge" "G OuterVoltage" "G InnerVoltage" "G QuasiFermiPotential" "G DisplacementCurrent"
    "G eCurrent" "G hCurrent" "G TotalCurrent" "G Charge" ]
  functions = [
    Time
    OuterVoltage InnerVoltage QuasiFermiPotential DisplacementCurrent eCurrent
    hCurrent TotalCurrent Charge OuterVoltage InnerVoltage
    QuasiFermiPotential DisplacementCurrent eCurrent hCurrent TotalCurrent
    Charge OuterVoltage InnerVoltage QuasiFermiPotential DisplacementCurrent
    eCurrent hCurrent TotalCurrent Charge ]
}

Data {
      0.00000000000000E+00
      0.00000000000000E+00   0.00000000000000E+00   0.00000000000000E+00   0.00000000000000E+00  -4.90726649448140E-19
      2.72790167636087E-34  -4.90726649448139E-19   3.82817980417582E-16   0.00000000000000E+00   0.00000000000000E+00
      0.00000000000000E+00   0.00000000000000E+00   4.87082606314897E-19   2.86830512812557E-34   4.87082606314897E-19
      5.39164285672224E-16  -5.00000000000000E-01  -5.00000000000000E-01   0.00000000000000E+00   0.00000000000000E+00
      0.00000000000000E+00   0.00000000000000E+00   0.00000000000000E+00  -3.83607999677905E-16
      0.00000000000000E+00
      0.00000000000000E+00   0.00000000000000E+00   0.00000000000000E+00   0.00000000000000E+00  -9.81097489937459E-19
     -2.28483539959711E-31  -9.81097489937688E-19   3.82817980410449E-16   0.00000000000000E+00   0.00000000000000E+00
      0.00000000000000E+00   0.00000000000000E+00   3.40875164917896E-18  -2.29176299178946E-31   3.40875164917873E-18
      5.39164285654726E-16  -5.00000000000000E-01  -5.00000000000000E-01   0.00000000000000E+00   0.00000000000000E+00
      0.00000000000000E+00   0.00000000000000E+00   0.00000000000000E+00  -3.83607999678270E-16
      1.00000000000000E-03
      0.00000000000000E+00   0.00000000000000E+00   0.00000000000000E+00   0.00000000000000E+00  -4.99949499042860E-19
     -3.41273454518397E-22  -5.00290772497378E-19   3.82773300186478E-16   1.00000000000000E-03   1.00000000000000E-03
      0.00000000000000E+00   0.00000000000000E+00  -4.82991427202405E-19   1.12080904316073E-21  -4.81870618159245E-19
      5.39472605275714E-16  -5.00000000000000E-01  -5.00000000000000E-01   0.00000000000000E+00   0.00000000000000E+00
      0.00000000000000E+00   0.00000000000000E+00   0.00000000000000E+00  -3.83924327145341E-16
      2.17333333333333E-03
      0.00000000000000E+00   0.00000000000000E+00   0.00000000000000E+00   0.00000000000000E+00  -3.93217761752821E-18
     -7.42522610741859E-22  -3.93292014013895E-18   3.82721226236028E-16   2.17333333333333E-03   2.17333333333333E-03
      0.00000000000000E+00   0.00000000000000E+00  -2.89717567257710E-18   2.39725904266732E-21  -2.89477841353444E-18
      5.39834596151606E-16  -5.00000000000000E-01  -5.00000000000000E-01   0.00000000000000E+00   0.00000000000000E+00
      0.00000000000000E+00   0.00000000000000E+00   0.00000000000000E+00  -3.84294184214660E-16
      3.56568888888889E-03
      0.00000000000000E+00   0.00000000000000E+00   0.00000000000000E+00   0.00000000000000E+00  -2.95554785676873E-18
     -1.21988500176455E-21  -2.95676774177050E-18   3.82659907210218E-16   3.56568888888889E-03   3.56568888888889E-03
      0.00000000000000E+00   0.00000000000000E+00   5.23465712259790E-19   3.85933646684835E-21   5.27325048726638E-19
      5.40264460024238E-16  -5.00000000000000E-01  -5.00000000000000E-01   0.00000000000000E+00   0.00000000000000E+00
      0.00000000000000E+00   0.00000000000000E+00   0.00000000000000E+00  -3.84731317945827E-16
      5.21795081481481E-03
      0.00000000000000E+00   0.00000000000000E+00   0.00000000000000E+00   0.00000000000000E+00   1.94798275560988E-18
     -1.78817702090315E-21   1.94619457858898E-18   3.82587784407827E-16   5.21795081481481E-03   5.21795081481481E-03
      0.00000000000000E+00   0.00000000000000E+00   1.51363228842063E-18   5.52261749739264E-21   1.51915490591803E-18
      5.40774956650292E-16  -5.00000000000000E-01  -5.00000000000000E-01   0.00000000000000E+00   0.00000000000000E+00
      0.00000000000000E+00   0.00000000000000E+00   0.00000000000000E+00  -3.85247665065421E-16
      7.17863496691358E-03
      0.00000000000000E+00   0.00000000000000E+00   0.00000000000000E+00   0.00000000000000E+00  -3.57778942708903E-18
     -2.46531672337880E-21  -3.58025474381241E-18   3.82503058769821E-16   7.17863496691358E-03   7.17863496691358E-03
      0.00000000000000E+00   0.00000000000000E+00  -5.25538265977826E-19   7.39933094830768E-21  -5.18138935029518E-19
      5.41381243104272E-16  -5.00000000000000E-01  -5.00000000000000E-01   0.00000000000000E+00   0.00000000000000E+00
      0.00000000000000E+00   0.00000000000000E+00   0.00000000000000E+00  -3.85857200750364E-16
      9.50531349407078E-03
      0.00000000000000E+00   0.00000000000000E+00   0.00000000000000E+00   0.00000000000000E+00   2.41886198763375E-18
     -3.27312211009798E-21   2.41558886552365E-18   3.82403653970764E-16   9.50531349407078E-03   9.50531349407078E-03
      0.00000000000000E+00   0.00000000000000E+00   3.49514371762465E-18   9.49610589453711E-21   3.50463982351919E-18
      5.42101312636885E-16  -5.00000000000000E-01  -5.00000000000000E-01   0.00000000000000E+00   0.00000000000000E+00
      0.00000000000000E+00   0.00000000000000E+00   0.00000000000000E+00  -3.86576287933052E-16
      1.22663053462973E-02
      0.00000000000000E+00   0.00000000000000E+00   0.00000000000000E+00   0.00000000000000E+00  -8.44566088144290E-19
     -4.23838844918988E-21  -8.48804476593480E-19   3.82287170930161E-16   1.22663053462973E-02   1.22663053462973E-02
      0.00000000000000E+00   0.00000000000000E+00   4.70105985092429E-18   1.18111817299350E-20   4.71287103265422E-18
      5.42956505739728E-16  -5.00000000000000E-01  -5.00000000000000E-01   0.00000000000000E+00   0.00000000000000E+00
      0.00000000000000E+00   0.00000000000000E+00   0.00000000000000E+00  -3.87424097064963E-16
      1.55426823442728E-02
      0.00000000000000E+00   0.00000000000000E+00   0.00000000000000E+00   0.00000000000000E+00  -1.92367116712299E-18
     -5.39448120536590E-21  -1.92906564832835E-18   3.82150817946123E-16   1.55426823442728E-02   1.55426823442728E-02
      0.00000000000000E+00   0.00000000000000E+00  -1.53090884535454E-18   1.43311393423606E-20  -1.51657770601218E-18
      5.43972088714653E-16  -5.00000000000000E-01  -5.00000000000000E-01   0.00000000000000E+00   0.00000000000000E+00
      0.00000000000000E+00   0.00000000000000E+00   0.00000000000000E+00  -3.88423160933435E-16
      1.94306497152037E-02
      0.00000000000000E+00   0.00000000000000E+00   0.00000000000000E+00   0.00000000000000E+00  -4.69883954194565E-18
     -6.78364028774446E-21  -4.70562318223340E-18   3.81991313221701E-16   1.94306497152037E-02   1.94306497152037E-02
      0.00000000000000E+00   0.00000000000000E+00  -2.40665983075385E-18   1.70275202328342E-20  -2.38963231052101E-18
      5.45177908116438E-16  -5.00000000000000E-01  -5.00000000000000E-01   0.00000000000000E+00   0.00000000000000E+00
      0.00000000000000E+00   0.00000000000000E+00   0.00000000000000E+00  -3.89600084393254E-16
      2.40443709953751E-02
      0.00000000000000E+00   0.00000000000000E+00   0.00000000000000E+00   0.00000000000000E+00  -2.49663810758559E-18
     -8.46065708499546E-21  -2.50509876467059E-18   3.81804718741386E-16   2.40443709953751E-02   2.40443709953751E-02
      0.00000000000000E+00   0.00000000000000E+00   5.16836633341538E-19   1.98538240767667E-20   5.36690457418304E-19
      5.46609091179129E-16  -5.00000000000000E-01  -5.00000000000000E-01   0.00000000000000E+00   0.00000000000000E+00
      0.00000000000000E+00   0.00000000000000E+00   0.00000000000000E+00  -3.90986568211942E-16
      2.95193202478451E-02
      0.00000000000000E+00   0.00000000000000E+00   0.00000000000000E+00   0.00000000000000E+00  -1.14304697011022E-17
     -1.04989119288943E-20  -1.14409686130311E-17   3.81586159873528E-16   2.95193202478451E-02   2.95193202478451E-02
      0.00000000000000E+00   0.00000000000000E+00  -2.07111075784330E-18   2.27438317768505E-20  -2.04836692606645E-18
      5.48306757334480E-16  -5.00000000000000E-01  -5.00000000000000E-01   0.00000000000000E+00   0.00000000000000E+00
      0.00000000000000E+00   0.00000000000000E+00   0.00000000000000E+00  -3.92620924435990E-16
      3.60162600274429E-02
      0.00000000000000E+00   0.00000000000000E+00   0.00000000000000E+00   0.00000000000000E+00  -4.09422064920460E-18
     -1.30005416426283E-20  -4.10722119084723E-18   3.81329360608421E-16   3.60162600274429E-02   3.60162600274429E-02
      0.00000000000000E+00   0.00000000000000E+00   6.46179760384410E-18   2.56125405738038E-20   6.48741014441790E-18
      5.50318680741302E-16  -5.00000000000000E-01  -5.00000000000000E-01   0.00000000000000E+00   0.00000000000000E+00
      0.00000000000000E+00   0.00000000000000E+00   0.00000000000000E+00  -3.94550351639405E-16
      4.37259618992322E-02
      0.00000000000000E+00   0.00000000000000E+00   0.00000000000000E+00   0.00000000000000E+00  -7.59463610669778E-19
     -1.61145439718806E-20  -7.75578154641658E-19   3.81025839592403E-16   4.37259618992322E-02   4.37259618992322E-02
      0.00000000000000E+00   0.00000000000000E+00   2.51801469261916E-18   2.83609865908567E-20   2.54637567921001E-18
      5.52699761183033E-16  -5.00000000000000E-01  -5.00000000000000E-01   0.00000000000000E+00   0.00000000000000E+00
      0.00000000000000E+00   0.00000000000000E+00   0.00000000000000E+00  -3.96834549738405E-16
      5.28748081204222E-02
      0.00000000000000E+00   0.00000000000000E+00   0.00000000000000E+00   0.00000000000000E+00   3.57908989993978E-19
     -2.00697639294041E-20   3.37839226064574E-19   3.80663569403119E-16   5.28748081204222E-02   5.28748081204222E-02
      0.00000000000000E+00   0.00000000000000E+00   4.63056820917748E-18   3.08859783575896E-20   4.66145418753507E-18
      5.55512128633049E-16  -5.00000000000000E-01  -5.00000000000000E-01   0.00000000000000E+00   0.00000000000000E+00
      0.00000000000000E+00   0.00000000000000E+00   0.00000000000000E+00  -3.99551412421872E-16
      6.36094543532852E-02
      0.00000000000000E+00   0.00000000000000E+00   0.00000000000000E+00   0.00000000000000E+00  -8.54523021327714E-18
     -2.51756761271454E-20  -8.57040588940429E-18   3.80229787443402E-16   6.36094543532852E-02   6.36094543532852E-02
      0.00000000000000E+00   0.00000000000000E+00   1.04733693503717E-18   3.30734882394460E-20   1.08041042327662E-18
      5.58787574318131E-16  -5.00000000000000E-01  -5.00000000000000E-01   0.00000000000000E+00   0.00000000000000E+00
      0.00000000000000E+00   0.00000000000000E+00   0.00000000000000E+00  -4.02769144261708E-16
      7.62047725998443E-02
      0.00000000000000E+00   0.00000000000000E+00   0.00000000000000E+00   0.00000000000000E+00  -7.71015053537449E-18
     -3.20098493178609E-20  -7.74216038469235E-18   3.79700229410087E-16   7.62047725998443E-02   7.62047725998443E-02
      0.00000000000000E+00   0.00000000000000E+00   1.83608338500833E-18   3.48722696770232E-20   1.87095565468535E-18
      5.62588553057344E-16  -5.00000000000000E-01  -5.00000000000000E-01   0.00000000000000E+00   0.00000000000000E+00
      0.00000000000000E+00   0.00000000000000E+00   0.00000000000000E+00  -4.06617197198528E-16
      9.09832793424738E-02
      0.00000000000000E+00   0.00000000000000E+00   0.00000000000000E+00   0.00000000000000E+00  -4.17660944617477E-18
     -4.15858696712863E-20  -4.21819531584606E-18   3.79038652832252E-16   9.09832793424738E-02   9.09832793424738E-02
      0.00000000000000E+00   0.00000000000000E+00   9.56652032063339E-18   3.62688233110035E-20   9.60278914394439E-18
      5.66979227680448E-16  -5.00000000000000E-01  -5.00000000000000E-01   0.00000000000000E+00   0.00000000000000E+00
      0.00000000000000E+00   0.00000000000000E+00   0.00000000000000E+00  -4.11275632951031E-16
      1.08323393920492E-01
      0.00000000000000E+00   0.00000000000000E+00   0.00000000000000E+00   0.00000000000000E+00  -7.92999391745016E-18
     -5.57513542966312E-20  -7.98574527174679E-18   3.78192684933914E-16   1.08323393920492E-01   1.08323393920492E-01
      0.00000000000000E+00   0.00000000000000E+00   7.40587260184403E-18   3.72898262979852E-20   7.44316242814202E-18
      5.72024246237444E-16  -5.00000000000000E-01  -5.00000000000000E-01   0.00000000000000E+00   0.00000000000000E+00
      0.00000000000000E+00   0.00000000000000E+00   0.00000000000000E+00  -4.16991493154235E-16
      1.28669128358701E-01
      0.00000000000000E+00   0.00000000000000E+00   0.00000000000000E+00   0.00000000000000E+00  -1.58063277949898E-17
     -7.79721190261673E-20  -1.58842999140160E-17   3.77092626941745E-16   1.28669128358701E-01   1.28669128358701E-01
      0.00000000000000E+00   0.00000000000000E+00   1.14709112066643E-17   3.79947055109264E-20   1.15089059121752E-17
      5.77791383706238E-16  -5.00000000000000E-01  -5.00000000000000E-01   0.00000000000000E+00   0.00000000000000E+00
      0.00000000000000E+00   0.00000000000000E+00   0.00000000000000E+00  -4.24084657476095E-16
      1.52541456766199E-01
      0.00000000000000E+00   0.00000000000000E+00   0.00000000000000E+00   0.00000000000000E+00  -3.43263358008098E-17
     -1.14842804260355E-19  -3.44411786050702E-17   3.75660114591616E-16   1.52541456766199E-01   1.52541456766199E-01
      0.00000000000000E+00   0.00000000000000E+00   5.66001399800031E-18   3.84603506403482E-20   5.69847434864065E-18
      5.84363673140401E-16  -5.00000000000000E-01  -5.00000000000000E-01   0.00000000000000E+00   0.00000000000000E+00
      0.00000000000000E+00   0.00000000000000E+00   0.00000000000000E+00  -4.32917899988996E-16
      1.80551655430996E-01
      0.00000000000000E+00   0.00000000000000E+00   0.00000000000000E+00   0.00000000000000E+00  -4.66214476149528E-17
     -1.78768263114155E-19  -4.68002158780669E-17   3.73835319311936E-16   1.80551655430996E-01   1.80551655430996E-01
      0.00000000000000E+00   0.00000000000000E+00   1.30385267181238E-17   3.87636827146954E-20   1.30772904008385E-17
      5.91865850402680E-16  -5.00000000000000E-01  -5.00000000000000E-01   0.00000000000000E+00   0.00000000000000E+00
      0.00000000000000E+00   0.00000000000000E+00   0.00000000000000E+00  -4.43798759194561E-16
      2.13416955197692E-01
      0.00000000000000E+00   0.00000000000000E+00   0.00000000000000E+00   0.00000000000000E+00  -2.76223975437684E-17
     -2.91521408405937E-19  -2.79139189521743E-17   3.71625729801415E-16   2.13416955197692E-01   2.13416955197692E-01
      0.00000000000000E+00   0.00000000000000E+00   2.63508091372135E-17   3.89685864800518E-20   2.63897777236935E-17
      6.00502510589265E-16  -5.00000000000000E-01  -5.00000000000000E-01   0.00000000000000E+00   0.00000000000000E+00
      0.00000000000000E+00   0.00000000000000E+00   0.00000000000000E+00  -4.56800654147332E-16
      2.51540702927059E-01
      0.00000000000000E+00   0.00000000000000E+00   0.00000000000000E+00   0.00000000000000E+00  -3.48627158403136E-17
     -4.81932084280409E-19  -3.53446479245940E-17   3.69184564230718E-16   2.51540702927059E-01   2.51540702927059E-01
      0.00000000000000E+00   0.00000000000000E+00   3.12442899775940E-17   3.91203630356524E-20   3.12834103406297E-17
      6.10473873267375E-16  -5.00000000000000E-01  -5.00000000000000E-01   0.00000000000000E+00   0.00000000000000E+00
      0.00000000000000E+00   0.00000000000000E+00   0.00000000000000E+00  -4.71407975585443E-16
      2.95764250293125E-01
      0.00000000000000E+00   0.00000000000000E+00   0.00000000000000E+00   0.00000000000000E+00  -4.28003114361165E-17
     -7.75516094089579E-19  -4.35758275302060E-17   3.66740713224803E-16   2.95764250293125E-01   2.95764250293125E-01
      0.00000000000000E+00   0.00000000000000E+00   4.64772613571520E-17   3.92517470481647E-20   4.65165131042002E-17
      6.22140237715289E-16  -5.00000000000000E-01  -5.00000000000000E-01   0.00000000000000E+00   0.00000000000000E+00
      0.00000000000000E+00   0.00000000000000E+00   0.00000000000000E+00  -4.86880681482379E-16
      3.46473917939547E-01
      0.00000000000000E+00   0.00000000000000E+00   0.00000000000000E+00   0.00000000000000E+00  -6.15152766224924E-17
     -1.17053915412426E-18  -6.26858157766166E-17   3.64521082230439E-16   3.46473917939547E-01   3.46473917939547E-01
      0.00000000000000E+00   0.00000000000000E+00   5.48348131897971E-17   3.93820249898914E-20   5.48741952147870E-17
      6.35685661555631E-16  -5.00000000000000E-01  -5.00000000000000E-01   0.00000000000000E+00   0.00000000000000E+00
      0.00000000000000E+00   0.00000000000000E+00   0.00000000000000E+00  -5.02407728190295E-16
      4.04621003507444E-01
      0.00000000000000E+00   0.00000000000000E+00   0.00000000000000E+00   0.00000000000000E+00  -8.29844351541765E-17
     -1.64122730143601E-18  -8.46256624556125E-17   3.62604049324814E-16   4.04621003507444E-01   4.04621003507444E-01
      0.00000000000000E+00   0.00000000000000E+00   7.42425424537565E-17   3.95227877090286E-20   7.42820652414655E-17
      6.51333397974976E-16  -5.00000000000000E-01  -5.00000000000000E-01   0.00000000000000E+00   0.00000000000000E+00
      0.00000000000000E+00   0.00000000000000E+00   0.00000000000000E+00  -5.17793557000556E-16
      4.71296328291967E-01
      0.00000000000000E+00   0.00000000000000E+00   0.00000000000000E+00   0.00000000000000E+00  -9.99482274522404E-17
     -2.14635938390314E-18  -1.02094586836144E-16   3.60978068913005E-16   4.71296328291967E-01   4.71296328291967E-01
      0.00000000000000E+00   0.00000000000000E+00   9.48282018568419E-17   3.96802686500963E-20   9.48678821254920E-17
      6.69253398605245E-16  -5.00000000000000E-01  -5.00000000000000E-01   0.00000000000000E+00   0.00000000000000E+00
      0.00000000000000E+00   0.00000000000000E+00   0.00000000000000E+00  -5.33165218040818E-16
      5.47750700711552E-01
      0.00000000000000E+00   0.00000000000000E+00   0.00000000000000E+00   0.00000000000000E+00  -1.18859100155645E-16
     -2.65875285382286E-18  -1.21517853009468E-16   3.59555135395507E-16   5.47750700711552E-01   5.47750700711552E-01
      0.00000000000000E+00   0.00000000000000E+00   1.18462424736809E-16   3.98560407656400E-20   1.18502280777574E-16
      6.89550072611778E-16  -5.00000000000000E-01  -5.00000000000000E-01   0.00000000000000E+00   0.00000000000000E+00
      0.00000000000000E+00   0.00000000000000E+00   0.00000000000000E+00  -5.48894592734633E-16
      6.35418381086010E-01
      0.00000000000000E+00   0.00000000000000E+00   0.00000000000000E+00   0.00000000000000E+00  -1.93025105683786E-16
     -3.32282934626838E-18  -1.96347935030055E-16   3.57986749368778E-16   6.35418381086010E-01   6.35418381086010E-01
      0.00000000000000E+00   0.00000000000000E+00   1.53901787867791E-16   4.00462844380129E-20   1.53941834152229E-16
      7.12099972283016E-16  -5.00000000000000E-01  -5.00000000000000E-01   0.00000000000000E+00   0.00000000000000E+00
      0.00000000000000E+00   0.00000000000000E+00   0.00000000000000E+00  -5.66219664155879E-16
      7.37112890320382E-01
      0.00000000000000E+00   0.00000000000000E+00   0.00000000000000E+00   0.00000000000000E+00  -2.39492812879342E-16
     -4.47325878832391E-18  -2.43966071667666E-16   3.55900211041254E-16   7.37112890320382E-01   7.37112890320382E-01
      0.00000000000000E+00   0.00000000000000E+00   2.36153128266829E-16   4.02528482305755E-20   2.36193381115060E-16
      7.36775703401652E-16  -5.00000000000000E-01  -5.00000000000000E-01   0.00000000000000E+00   0.00000000000000E+00
      0.00000000000000E+00   0.00000000000000E+00   0.00000000000000E+00  -5.86346361784156E-16
      8.53722594242461E-01
      0.00000000000000E+00   0.00000000000000E+00   0.00000000000000E+00   0.00000000000000E+00  -3.72187197830936E-16
     -5.56121449401591E-18  -3.77748412324952E-16   3.54063434476274E-16   8.53722594242461E-01   8.53722594242461E-01
      0.00000000000000E+00   0.00000000000000E+00   3.73216988435399E-16   4.04844639151715E-20   3.73257472899315E-16
      7.62441193920091E-16  -5.00000000000000E-01  -5.00000000000000E-01   0.00000000000000E+00   0.00000000000000E+00
      0.00000000000000E+00   0.00000000000000E+00   0.00000000000000E+00  -6.05170820754038E-16
      9.20578824491120E-01
      0.00000000000000E+00   0.00000000000000E+00   0.00000000000000E+00   0.00000000000000E+00  -4.82280675825104E-16
     -6.08015271897585E-18  -4.88360828544079E-16   3.53161993029955E-16   9.20578824491120E-01   9.20578824491120E-01
      0.00000000000000E+00   0.00000000000000E+00   4.86373405198882E-16   4.06153659128998E-20   4.86414020564795E-16
      7.75242544320106E-16  -5.00000000000000E-01  -5.00000000000000E-01   0.00000000000000E+00   0.00000000000000E+00
      0.00000000000000E+00   0.00000000000000E+00   0.00000000000000E+00  -6.13887186170380E-16
      9.97240635176249E-01
      0.00000000000000E+00   0.00000000000000E+00   0.00000000000000E+00   0.00000000000000E+00  -6.51872665392672E-16
     -6.67429757994237E-18  -6.58546962972614E-16   3.52147919927197E-16   9.97240635176249E-01   9.97240635176249E-01
      0.00000000000000E+00   0.00000000000000E+00   6.62541077329238E-16   4.07630844785828E-20   6.62581840413716E-16
      7.88450572733719E-16  -5.00000000000000E-01  -5.00000000000000E-01   0.00000000000000E+00   0.00000000000000E+00
      0.00000000000000E+00   0.00000000000000E+00   0.00000000000000E+00  -6.22663894106815E-16
      1.00000000000000E+00
      0.00000000000000E+00   0.00000000000000E+00   0.00000000000000E+00   0.00000000000000E+00  -6.64846305587660E-16
     -6.69557174184524E-18  -6.71541877329505E-16   3.52111703098777E-16   1.00000000000000E+00   1.00000000000000E+00
      0.00000000000000E+00   0.00000000000000E+00   6.58659936226567E-16   4.07683431308464E-20   6.58700704569697E-16
      7.88907334525454E-16  -5.00000000000000E-01  -5.00000000000000E-01   0.00000000000000E+00   0.00000000000000E+00
      0.00000000000000E+00   0.00000000000000E+00   0.00000000000000E+00  -6.22963789918847E-16
      0.00000000000000E+00
      0.00000000000000E+00   0.00000000000000E+00   0.00000000000000E+00   0.00000000000000E+00  -6.58854337191345E-16
     -6.69556455353487E-18  -6.65549901744880E-16   3.52111708500345E-16   1.00000000000000E+00   1.00000000000000E+00
      0.00000000000000E+00   0.00000000000000E+00   6.69716720636413E-16   4.07683431693735E-20   6.69757488979583E-16
      7.88907336573500E-16  -5.00000000000000E-01  -5.00000000000000E-01   0.00000000000000E+00   0.00000000000000E+00
      0.00000000000000E+00   0.00000000000000E+00   0.00000000000000E+00  -6.22963769401907E-16
      1.00000000000000E-03
      0.00000000000000E+00   0.00000000000000E+00   0.00000000000000E+00   0.00000000000000E+00  -7.55975710592014E-16
     -6.65524123783255E-18  -7.62630951829846E-16   3.52045959815177E-16   1.00000000000000E+00   1.00000000000000E+00
      0.00000000000000E+00   0.00000000000000E+00   6.70890356523924E-16   4.07677476605005E-20   6.70931124271585E-16
      7.88745590590852E-16  -4.98000000000000E-01  -4.98000000000000E-01   0.00000000000000E+00   0.00000000000000E+00
      0.00000000000000E+00   0.00000000000000E+00   0.00000000000000E+00  -6.21103900500664E-16
      2.16000000000000E-03
      0.00000000000000E+00   0.00000000000000E+00   0.00000000000000E+00   0.00000000000000E+00  -6.68231044694940E-16
     -6.60779052638697E-18  -6.74838835221327E-16   3.51969918402092E-16   1.00000000000000E+00   1.00000000000000E+00
      0.00000000000000E+00   0.00000000000000E+00   6.68128992459440E-16   4.07670578019829E-20   6.68169759517242E-16
      7.88557458255741E-16  -4.95680000000000E-01  -4.95680000000000E-01   0.00000000000000E+00   0.00000000000000E+00
      0.00000000000000E+00   0.00000000000000E+00   0.00000000000000E+00  -6.18948436959122E-16
      3.53653333333333E-03
      0.00000000000000E+00   0.00000000000000E+00   0.00000000000000E+00   0.00000000000000E+00  -6.73505369233675E-16
     -6.55037174699687E-18  -6.80055740980671E-16   3.51880142873446E-16   1.00000000000000E+00   1.00000000000000E+00
      0.00000000000000E+00   0.00000000000000E+00   6.74305106117895E-16   4.07662414014741E-20   6.74345872359296E-16
      7.88333530023439E-16  -4.92926933333333E-01  -4.92926933333333E-01   0.00000000000000E+00   0.00000000000000E+00
      0.00000000000000E+00   0.00000000000000E+00   0.00000000000000E+00  -6.16392956481977E-16
      5.17001955555556E-03
      0.00000000000000E+00   0.00000000000000E+00   0.00000000000000E+00   0.00000000000000E+00  -6.81142444045164E-16
     -6.48069664346761E-18  -6.87623140688632E-16   3.51774266614643E-16   1.00000000000000E+00   1.00000000000000E+00
      0.00000000000000E+00   0.00000000000000E+00   6.80454533300885E-16   4.07652756605102E-20   6.80495298576545E-16
      7.88066807055117E-16  -4.89659960888889E-01  -4.89659960888889E-01   0.00000000000000E+00   0.00000000000000E+00
      0.00000000000000E+00   0.00000000000000E+00   0.00000000000000E+00  -6.13363905383233E-16
      7.10842320592592E-03
      0.00000000000000E+00   0.00000000000000E+00   0.00000000000000E+00   0.00000000000000E+00  -6.96182345671703E-16
     -6.39582079746076E-18  -7.02578166469163E-16   3.51649624795061E-16   1.00000000000000E+00   1.00000000000000E+00
      0.00000000000000E+00   0.00000000000000E+00   6.82933028714823E-16   4.07641342081873E-20   6.82973792849031E-16
      7.87748847715147E-16  -4.85783153588148E-01  -4.85783153588148E-01   0.00000000000000E+00   0.00000000000000E+00
      0.00000000000000E+00   0.00000000000000E+00   0.00000000000000E+00  -6.09774355426614E-16
      9.40866220436543E-03
      0.00000000000000E+00   0.00000000000000E+00   0.00000000000000E+00   0.00000000000000E+00  -7.30233480640519E-16
     -6.29193734212317E-18  -7.36525417982642E-16   3.51503268776522E-16   1.00000000000000E+00   1.00000000000000E+00
      0.00000000000000E+00   0.00000000000000E+00   6.75049541409181E-16   4.07627867278092E-20   6.75090304195909E-16
      7.87369424760661E-16  -4.81182675591269E-01  -4.81182675591269E-01   0.00000000000000E+00   0.00000000000000E+00
      0.00000000000000E+00   0.00000000000000E+00   0.00000000000000E+00  -6.05521709605919E-16
      1.21382791491803E-02
      0.00000000000000E+00   0.00000000000000E+00   0.00000000000000E+00   0.00000000000000E+00  -6.81269566049147E-16
     -6.16416580831443E-18  -6.87433731857462E-16   3.51331973483456E-16   1.00000000000000E+00   1.00000000000000E+00
      0.00000000000000E+00   0.00000000000000E+00   6.81983204559131E-16   4.07611983217695E-20   6.82023965757453E-16
      7.86916058291947E-16  -4.75723441701639E-01  -4.75723441701639E-01   0.00000000000000E+00   0.00000000000000E+00
      0.00000000000000E+00   0.00000000000000E+00   0.00000000000000E+00  -6.00485276449222E-16
      1.53410296977631E-02
      0.00000000000000E+00   0.00000000000000E+00   0.00000000000000E+00   0.00000000000000E+00  -6.88975642986856E-16
     -6.00779639903398E-18  -6.94983439385890E-16   3.51134757140809E-16   1.00000000000000E+00   1.00000000000000E+00
      0.00000000000000E+00   0.00000000000000E+00   6.95183520820352E-16   4.07593515327891E-20   6.95224280171885E-16
      7.86379606066758E-16  -4.69317940604474E-01  -4.69317940604474E-01   0.00000000000000E+00   0.00000000000000E+00
      0.00000000000000E+00   0.00000000000000E+00   0.00000000000000E+00  -5.94589619267366E-16
      1.90989236747669E-02
      0.00000000000000E+00   0.00000000000000E+00   0.00000000000000E+00   0.00000000000000E+00  -6.95386192112268E-16
     -5.81531670449367E-18  -7.01201508816762E-16   3.50909188333860E-16   1.00000000000000E+00   1.00000000000000E+00
      0.00000000000000E+00   0.00000000000000E+00   7.02671074927190E-16   4.07572107791555E-20   7.02711832137969E-16
      7.85743602490078E-16  -4.61802152650466E-01  -4.61802152650466E-01   0.00000000000000E+00   0.00000000000000E+00
      0.00000000000000E+00   0.00000000000000E+00   0.00000000000000E+00  -5.87691334966741E-16
      2.35081859411180E-02
      0.00000000000000E+00   0.00000000000000E+00   0.00000000000000E+00   0.00000000000000E+00  -7.09090314425355E-16
     -5.57691437264743E-18  -7.14667228798003E-16   3.50653687057454E-16   1.00000000000000E+00   1.00000000000000E+00
      0.00000000000000E+00   0.00000000000000E+00   7.08941860261036E-16   4.07547404290462E-20   7.08982615001465E-16
      7.84987740272459E-16  -4.52983628117764E-01  -4.52983628117764E-01   0.00000000000000E+00   0.00000000000000E+00
      0.00000000000000E+00   0.00000000000000E+00   0.00000000000000E+00  -5.79624219663145E-16
      2.86817203336367E-02
      0.00000000000000E+00   0.00000000000000E+00   0.00000000000000E+00   0.00000000000000E+00  -7.21430760934769E-16
     -5.27990896171702E-18  -7.26710669896486E-16   3.50368430459431E-16   1.00000000000000E+00   1.00000000000000E+00
      0.00000000000000E+00   0.00000000000000E+00   7.15224390956900E-16   4.07519088399851E-20   7.15265142865740E-16
      7.84086694286786E-16  -4.42636559332727E-01  -4.42636559332727E-01   0.00000000000000E+00   0.00000000000000E+00
      0.00000000000000E+00   0.00000000000000E+00   0.00000000000000E+00  -5.70196270101290E-16
      3.47520006875253E-02
      0.00000000000000E+00   0.00000000000000E+00   0.00000000000000E+00   0.00000000000000E+00  -7.34262975633115E-16
     -4.90830200520187E-18  -7.39171277638317E-16   3.50056917713173E-16   1.00000000000000E+00   1.00000000000000E+00