DF-ISE text

Info {
  version   = 1.0
  type      = xyplot
  datasets  = [
    "time"
    "S OuterVoltage" "S InnerVoltage" "S QuasiFermiPotential" "S DisplacementCurrent" "S eCurrent"
    "S hCurrent" "S TotalCurrent" "S Charge" "D OuterVoltage" "D InnerVoltage"
    "D QuasiFermiPotential" "D DisplacementCurrent" "D eCurrent" "D hCurrent" "D TotalCurrent"
    "D Charge" "G OuterVoltage" "G InnerVoltage" "G QuasiFermiPotential" "G DisplacementCurrent"
    "G eCurrent" "G hCurrent" "G TotalCurrent" "G Charge" ]
  functions = [
    Time
    OuterVoltage InnerVoltage QuasiFermiPotential DisplacementCurrent eCurrent
    hCurrent TotalCurrent Charge OuterVoltage InnerVoltage
    QuasiFermiPotential DisplacementCurrent eCurrent hCurrent TotalCurrent
    Charge OuterVoltage InnerVoltage QuasiFermiPotential DisplacementCurrent
    eCurrent hCurrent TotalCurrent Charge ]
}

Data {
      0.00000000000000E+00
      0.00000000000000E+00   0.00000000000000E+00   0.00000000000000E+00   0.00000000000000E+00  -5.43707479247183E-31
     -9.57636756287735E-34  -5.44665116003471E-31   5.88821565296027E-16   0.00000000000000E+00   0.00000000000000E+00
      0.00000000000000E+00   0.00000000000000E+00   1.22134936436617E-18  -9.75073893294178E-34   1.22134936436617E-18
      7.57962103525363E-16  -5.00000000000000E-01  -5.00000000000000E-01   0.00000000000000E+00   0.00000000000000E+00
      0.00000000000000E+00   0.00000000000000E+00   0.00000000000000E+00  -4.16048787711945E-16
      0.00000000000000E+00
      0.00000000000000E+00   0.00000000000000E+00   0.00000000000000E+00   0.00000000000000E+00   7.95165356715524E-18
      1.23846797470107E-29   7.95165356716762E-18   5.88821564561470E-16   0.00000000000000E+00   0.00000000000000E+00
      0.00000000000000E+00   0.00000000000000E+00  -3.05337341502589E-18   1.24452050432912E-29  -3.05337341501345E-18
      7.57962102725549E-16  -5.00000000000000E-01  -5.00000000000000E-01   0.00000000000000E+00   0.00000000000000E+00
      0.00000000000000E+00   0.00000000000000E+00   0.00000000000000E+00  -4.16048787743225E-16
      1.00000000000000E-03
      0.00000000000000E+00   0.00000000000000E+00   0.00000000000000E+00   0.00000000000000E+00  -5.50502624515830E-18
     -7.02868661124582E-24  -5.50503327384491E-18   5.88819504013544E-16   1.00000000000000E-03   1.00000000000000E-03
      0.00000000000000E+00   0.00000000000000E+00   8.98394593911752E-14   1.44525012833405E-21   8.98394608364253E-14
      7.58579923377935E-16  -5.00000000000000E-01  -5.00000000000000E-01   0.00000000000000E+00   0.00000000000000E+00
      0.00000000000000E+00   0.00000000000000E+00   0.00000000000000E+00  -4.16221219469691E-16
      2.18666666666667E-03
      0.00000000000000E+00   0.00000000000000E+00   0.00000000000000E+00   0.00000000000000E+00   1.83496513602188E-18
     -1.51261300482745E-23   1.83495000989183E-18   5.88817130400069E-16   2.18666666666667E-03   2.18666666666667E-03
      0.00000000000000E+00   0.00000000000000E+00  -1.21927124886484E-18   3.09039188262727E-21  -1.21618085698221E-18
      7.59313051480833E-16  -5.00000000000000E-01  -5.00000000000000E-01   0.00000000000000E+00   0.00000000000000E+00
      0.00000000000000E+00   0.00000000000000E+00   0.00000000000000E+00  -4.16425729930411E-16
      3.61066666666667E-03
      0.00000000000000E+00   0.00000000000000E+00   0.00000000000000E+00   0.00000000000000E+00   1.83494604244005E-18
     -2.45373743440225E-23   1.83492150506571E-18   5.88814372015434E-16   3.61066666666667E-03   3.61066666666667E-03
      0.00000000000000E+00   0.00000000000000E+00   4.26671667387409E-18   4.96887591724681E-21   4.27168554979134E-18
      7.60192765057732E-16  -5.00000000000000E-01  -5.00000000000000E-01   0.00000000000000E+00   0.00000000000000E+00
      0.00000000000000E+00   0.00000000000000E+00   0.00000000000000E+00  -4.16671008188082E-16
      5.31946666666667E-03
      0.00000000000000E+00   0.00000000000000E+00   0.00000000000000E+00   0.00000000000000E+00   7.33999251464282E-18
     -3.54008626451637E-23   7.33995711378018E-18   5.88811188414309E-16   5.31946666666667E-03   5.31946666666667E-03
      0.00000000000000E+00   0.00000000000000E+00  -6.08676746927725E-18   7.09260670751961E-21  -6.07967486256973E-18
      7.61248360909281E-16  -5.00000000000000E-01  -5.00000000000000E-01   0.00000000000000E+00   0.00000000000000E+00
      0.00000000000000E+00   0.00000000000000E+00   0.00000000000000E+00  -4.16965153920794E-16
      7.37002666666667E-03
      0.00000000000000E+00   0.00000000000000E+00   0.00000000000000E+00   0.00000000000000E+00  -4.89354782991350E-18
     -4.78482785788940E-23  -4.89359567819208E-18   5.88807541154961E-16   7.37002666666667E-03   7.37002666666667E-03
      0.00000000000000E+00   0.00000000000000E+00   3.04221463808457E-18   9.46516567768953E-21   3.05167980376226E-18
      7.62514980437246E-16  -5.00000000000000E-01  -5.00000000000000E-01   0.00000000000000E+00   0.00000000000000E+00
      0.00000000000000E+00   0.00000000000000E+00   0.00000000000000E+00  -4.17317873100584E-16
      9.83069866666667E-03
      0.00000000000000E+00   0.00000000000000E+00   0.00000000000000E+00   0.00000000000000E+00   6.72832117705272E-18
     -6.20498676090091E-23   6.72825912718511E-18   5.88803380570154E-16   9.83069866666667E-03   9.83069866666667E-03
      0.00000000000000E+00   0.00000000000000E+00   1.21679955179182E-18   1.20780568008610E-20   1.22887760859269E-18
      7.64034753461788E-16  -5.00000000000000E-01  -5.00000000000000E-01   0.00000000000000E+00   0.00000000000000E+00
      0.00000000000000E+00   0.00000000000000E+00   0.00000000000000E+00  -4.17740823585948E-16
      1.27835050666667E-02
      0.00000000000000E+00   0.00000000000000E+00   0.00000000000000E+00   0.00000000000000E+00   1.03984330768772E-17
     -7.81802724549581E-23   1.03983548966047E-17   5.88798655758581E-16   1.27835050666667E-02   1.27835050666667E-02
      0.00000000000000E+00   0.00000000000000E+00  -6.05903642175086E-18   1.49066945979757E-20  -6.04412972715288E-18
      7.65858193316374E-16  -5.00000000000000E-01  -5.00000000000000E-01   0.00000000000000E+00   0.00000000000000E+00
      0.00000000000000E+00   0.00000000000000E+00   0.00000000000000E+00  -4.18247987049083E-16
      1.62875019946667E-02
      0.00000000000000E+00   0.00000000000000E+00   0.00000000000000E+00   0.00000000000000E+00   1.22313489780790E-18
     -9.60172650712875E-23   1.22303888054283E-18   5.88793431845482E-16   1.62875019946667E-02   1.62875019946667E-02
      0.00000000000000E+00   0.00000000000000E+00  -6.65112026845089E-18   1.78755614333575E-20  -6.63324470701754E-18
      7.68021609998210E-16  -5.00000000000000E-01  -5.00000000000000E-01   0.00000000000000E+00   0.00000000000000E+00
      0.00000000000000E+00   0.00000000000000E+00   0.00000000000000E+00  -4.18849281380575E-16
      2.04455783492267E-02
      0.00000000000000E+00   0.00000000000000E+00   0.00000000000000E+00   0.00000000000000E+00   8.56342748837845E-18
     -1.15720362456371E-22   8.56331176801600E-18   5.88787662363360E-16   2.04455783492267E-02   2.04455783492267E-02
      0.00000000000000E+00   0.00000000000000E+00   1.81537568472239E-18   2.09212102726377E-20   1.83629689499503E-18
      7.70588196471884E-16  -5.00000000000000E-01  -5.00000000000000E-01   0.00000000000000E+00   0.00000000000000E+00
      0.00000000000000E+00   0.00000000000000E+00   0.00000000000000E+00  -4.19562241666973E-16
      2.53798289566379E-02
      0.00000000000000E+00   0.00000000000000E+00   0.00000000000000E+00   0.00000000000000E+00   4.89326963912166E-18
     -1.37366907446125E-22   4.89313227221422E-18   5.88781324815603E-16   2.53798289566379E-02   2.53798289566379E-02
      0.00000000000000E+00   0.00000000000000E+00   4.82072611772020E-18   2.39623490472224E-20   4.84468846676742E-18
      7.73632850812228E-16  -5.00000000000000E-01  -5.00000000000000E-01   0.00000000000000E+00   0.00000000000000E+00
      0.00000000000000E+00   0.00000000000000E+00   0.00000000000000E+00  -4.20407638794328E-16
      3.12351396774325E-02
      0.00000000000000E+00   0.00000000000000E+00   0.00000000000000E+00   0.00000000000000E+00  -7.34080948673074E-18
     -1.61133330259683E-22  -7.34097062006101E-18   5.88774367824448E-16   3.12351396774325E-02   3.12351396774325E-02
      0.00000000000000E+00   0.00000000000000E+00   1.80667530115937E-18   2.69035610273014E-20   1.83357886218668E-18
      7.77244252920638E-16  -5.00000000000000E-01  -5.00000000000000E-01   0.00000000000000E+00   0.00000000000000E+00
      0.00000000000000E+00   0.00000000000000E+00   0.00000000000000E+00  -4.21410186626839E-16
      3.81834417327754E-02
      0.00000000000000E+00   0.00000000000000E+00   0.00000000000000E+00   0.00000000000000E+00   8.56356358248135E-18
     -1.87442781262480E-22   8.56337613970009E-18   5.88766668248313E-16   3.81834417327754E-02   3.81834417327754E-02
      0.00000000000000E+00   0.00000000000000E+00   2.39870967554900E-18   2.96430288249361E-20   2.42835270437394E-18
      7.81527331241781E-16  -5.00000000000000E-01  -5.00000000000000E-01   0.00000000000000E+00   0.00000000000000E+00
      0.00000000000000E+00   0.00000000000000E+00   0.00000000000000E+00  -4.22599350554342E-16
      4.64287601717824E-02
      0.00000000000000E+00   0.00000000000000E+00   0.00000000000000E+00   0.00000000000000E+00   9.17535475786489E-18
     -2.17003409201071E-22   9.17513775445569E-18   5.88758020301425E-16   4.64287601717824E-02   4.64287601717824E-02
      0.00000000000000E+00   0.00000000000000E+00   8.93216822769309E-18   3.20842543286153E-20   8.96425248202170E-18
      7.86606205741978E-16  -5.00000000000000E-01  -5.00000000000000E-01   0.00000000000000E+00   0.00000000000000E+00
      0.00000000000000E+00   0.00000000000000E+00   0.00000000000000E+00  -4.24010243756039E-16
      5.62132047194040E-02
      0.00000000000000E+00   0.00000000000000E+00   0.00000000000000E+00   0.00000000000000E+00   4.89337513099219E-18
     -2.51190971058115E-22   4.89312394002113E-18   5.88748024797354E-16   5.62132047194040E-02   5.62132047194040E-02
      0.00000000000000E+00   0.00000000000000E+00  -2.94492432224736E-18   3.41503512657337E-20  -2.91077397098162E-18
      7.92627541660441E-16  -5.00000000000000E-01  -5.00000000000000E-01   0.00000000000000E+00   0.00000000000000E+00
      0.00000000000000E+00   0.00000000000000E+00   0.00000000000000E+00  -4.25684859738983E-16
      6.78240789159150E-02
      0.00000000000000E+00   0.00000000000000E+00   0.00000000000000E+00   0.00000000000000E+00   7.95211984162617E-18
     -2.92513036044880E-22   7.95182732859013E-18   5.88735955548077E-16   6.78240789159150E-02   6.78240789159150E-02
      0.00000000000000E+00   0.00000000000000E+00   1.19150280590403E-18   3.57980772323805E-20   1.22730088313641E-18
      7.99764474091568E-16  -5.00000000000000E-01  -5.00000000000000E-01   0.00000000000000E+00   0.00000000000000E+00
      0.00000000000000E+00   0.00000000000000E+00   0.00000000000000E+00  -4.27673545335658E-16
      8.14475046398212E-02
      0.00000000000000E+00   0.00000000000000E+00   0.00000000000000E+00   0.00000000000000E+00   3.05828430552659E-18
     -3.44760467099866E-22   3.05793954505949E-18   5.88720718992381E-16   8.14475046398212E-02   8.14475046398212E-02
      0.00000000000000E+00   0.00000000000000E+00  -8.14750406171649E-18   3.70165964829389E-20  -8.11048746523355E-18
      8.08126178309100E-16  -5.00000000000000E-01  -5.00000000000000E-01   0.00000000000000E+00   0.00000000000000E+00
      0.00000000000000E+00   0.00000000000000E+00   0.00000000000000E+00  -4.30010286162262E-16
      9.74323241558711E-02
      0.00000000000000E+00   0.00000000000000E+00   0.00000000000000E+00   0.00000000000000E+00   2.44659443145574E-18
     -4.15157290035016E-22   2.44617927416570E-18   5.88700235286299E-16   9.74323241558711E-02   9.74323241558711E-02
      0.00000000000000E+00   0.00000000000000E+00   6.96689677912712E-18   3.78611058460523E-20   7.00475788497317E-18
      8.17919286174216E-16  -5.00000000000000E-01  -5.00000000000000E-01   0.00000000000000E+00   0.00000000000000E+00
      0.00000000000000E+00   0.00000000000000E+00   0.00000000000000E+00  -4.32758537090899E-16
      1.16187845721370E-01
      0.00000000000000E+00   0.00000000000000E+00   0.00000000000000E+00   0.00000000000000E+00   5.50562749611541E-18
     -5.16421787231776E-22   5.50511107432817E-18   5.88670859426906E-16   1.16187845721370E-01   1.16187845721370E-01
      0.00000000000000E+00   0.00000000000000E+00  -1.10983983891732E-18   3.84130897052873E-20  -1.07142674921204E-18
      8.29383424956518E-16  -5.00000000000000E-01  -5.00000000000000E-01   0.00000000000000E+00   0.00000000000000E+00
      0.00000000000000E+00   0.00000000000000E+00   0.00000000000000E+00  -4.35994955295411E-16
      1.38194324358221E-01
      0.00000000000000E+00   0.00000000000000E+00   0.00000000000000E+00   0.00000000000000E+00   6.11330438798443E-19
     -6.71908052066701E-22   6.10658530746376E-19   5.88625942832041E-16   1.38194324358221E-01   1.38194324358221E-01
      0.00000000000000E+00   0.00000000000000E+00  -2.78018351980696E-18   3.87631415490763E-20  -2.74142037825788E-18
      8.42795015711234E-16  -5.00000000000000E-01  -5.00000000000000E-01   0.00000000000000E+00   0.00000000000000E+00
      0.00000000000000E+00   0.00000000000000E+00   0.00000000000000E+00  -4.39813679192048E-16
      1.64015259292127E-01
      0.00000000000000E+00   0.00000000000000E+00   0.00000000000000E+00   0.00000000000000E+00  -6.73128335637239E-18
     -9.26516605454074E-22  -6.73220987297785E-18   5.88552836740021E-16   1.64015259292127E-01   1.64015259292127E-01
      0.00000000000000E+00   0.00000000000000E+00  -7.18629303938486E-18   3.89937508332603E-20  -7.14729928855160E-18
      8.58469967632682E-16  -5.00000000000000E-01  -5.00000000000000E-01   0.00000000000000E+00   0.00000000000000E+00
      0.00000000000000E+00   0.00000000000000E+00   0.00000000000000E+00  -4.44333500198949E-16
      1.94311822947910E-01
      0.00000000000000E+00   0.00000000000000E+00   0.00000000000000E+00   0.00000000000000E+00  -6.12586322863942E-19
     -1.37183660435148E-21  -6.13958159468293E-19   5.88426186302160E-16   1.94311822947910E-01   1.94311822947910E-01
      0.00000000000000E+00   0.00000000000000E+00  -6.48116328378359E-18   3.91675606154180E-20  -6.44199572316818E-18
      8.76762866551909E-16  -5.00000000000000E-01  -5.00000000000000E-01   0.00000000000000E+00   0.00000000000000E+00
      0.00000000000000E+00   0.00000000000000E+00   0.00000000000000E+00  -4.49711465428123E-16
      2.29859790970696E-01
      0.00000000000000E+00   0.00000000000000E+00   0.00000000000000E+00   0.00000000000000E+00   4.28455376373562E-18
     -2.19868198173551E-21   4.28235508175389E-18   5.88194845106569E-16   2.29859790970696E-01   2.29859790970696E-01
      0.00000000000000E+00   0.00000000000000E+00   7.77309783316181E-18   3.93239674441661E-20   7.81242180060597E-18
      8.98059495401471E-16  -5.00000000000000E-01  -5.00000000000000E-01   0.00000000000000E+00   0.00000000000000E+00
      0.00000000000000E+00   0.00000000000000E+00   0.00000000000000E+00  -4.56167176256093E-16
      2.71095433877127E-01
      0.00000000000000E+00   0.00000000000000E+00   0.00000000000000E+00   0.00000000000000E+00  -6.13486250618251E-19
     -3.74856758319460E-21  -6.17234818201446E-19   5.87773677385627E-16   2.71095433877127E-01   2.71095433877127E-01
      0.00000000000000E+00   0.00000000000000E+00  -4.41187462790016E-18   3.94812439381845E-20  -4.37239338396198E-18
      9.22488122891521E-16  -5.00000000000000E-01  -5.00000000000000E-01   0.00000000000000E+00   0.00000000000000E+00
      0.00000000000000E+00   0.00000000000000E+00   0.00000000000000E+00  -4.63917835340297E-16
      3.18928779648587E-01
      0.00000000000000E+00   0.00000000000000E+00   0.00000000000000E+00   0.00000000000000E+00  -6.13266250828849E-18
     -6.55100364632021E-21  -6.13921351193481E-18   5.87049853962786E-16   3.18928779648587E-01   3.18928779648587E-01
      0.00000000000000E+00   0.00000000000000E+00   6.84462729835117E-18   3.96469964106254E-20   6.88427429476180E-18
      9.50407269477053E-16  -5.00000000000000E-01  -5.00000000000000E-01   0.00000000000000E+00   0.00000000000000E+00
      0.00000000000000E+00   0.00000000000000E+00   0.00000000000000E+00  -4.73305964945535E-16
      3.74415460743480E-01
      0.00000000000000E+00   0.00000000000000E+00   0.00000000000000E+00   0.00000000000000E+00  -1.04423694334512E-17
     -1.16615916261698E-20  -1.04540310250773E-17   5.85838292383443E-16   3.74415460743480E-01   3.74415460743480E-01
      0.00000000000000E+00   0.00000000000000E+00   5.64101019319341E-18   3.98221717419529E-20   5.68083236493536E-18
      9.82137774422641E-16  -5.00000000000000E-01  -5.00000000000000E-01   0.00000000000000E+00   0.00000000000000E+00
      0.00000000000000E+00   0.00000000000000E+00   0.00000000000000E+00  -4.84815156892374E-16
      4.38780010813557E-01
      0.00000000000000E+00   0.00000000000000E+00   0.00000000000000E+00   0.00000000000000E+00  -3.08283136540429E-18
     -2.19440781096991E-20  -3.10477544351399E-18   5.83733947441042E-16   4.38780010813557E-01   4.38780010813557E-01
      0.00000000000000E+00   0.00000000000000E+00   1.83387319025071E-17   4.00035101140247E-20   1.83787354126211E-17
      1.01778909035323E-15  -5.00000000000000E-01  -5.00000000000000E-01   0.00000000000000E+00   0.00000000000000E+00
      0.00000000000000E+00   0.00000000000000E+00   0.00000000000000E+00  -4.99312054405101E-16
      5.13442888894846E-01
      0.00000000000000E+00   0.00000000000000E+00   0.00000000000000E+00   0.00000000000000E+00  -2.04250514701592E-17
     -4.34071422086369E-20  -2.04684586123679E-17   5.80299155040793E-16   5.13442888894846E-01   5.13442888894846E-01
      0.00000000000000E+00   0.00000000000000E+00   2.98654881404217E-17   4.01859695676296E-20   2.99056741099893E-17
      1.05736039414171E-15  -5.00000000000000E-01  -5.00000000000000E-01   0.00000000000000E+00   0.00000000000000E+00
      0.00000000000000E+00   0.00000000000000E+00   0.00000000000000E+00  -5.17748478696489E-16
      5.99056322428057E-01
      0.00000000000000E+00   0.00000000000000E+00   0.00000000000000E+00   0.00000000000000E+00  -3.30327882591149E-17
     -8.97875614604615E-20  -3.31225758205753E-17   5.75214157560355E-16   5.99056322428057E-01   5.99056322428057E-01
      0.00000000000000E+00   0.00000000000000E+00   2.06991221960958E-17   4.03600786304914E-20   2.07394822747263E-17
      1.10011307121889E-15  -5.00000000000000E-01  -5.00000000000000E-01   0.00000000000000E+00   0.00000000000000E+00
      0.00000000000000E+00   0.00000000000000E+00   0.00000000000000E+00  -5.40758537856858E-16
      6.99509417773692E-01
      0.00000000000000E+00   0.00000000000000E+00   0.00000000000000E+00   0.00000000000000E+00  -8.94707847064411E-17
     -2.20242386688967E-19  -8.96910270931301E-17   5.67230295116405E-16   6.99509417773692E-01   6.99509417773692E-01
      0.00000000000000E+00   0.00000000000000E+00   9.39364714065265E-17   4.05151350599768E-20   9.39769865415865E-17
      1.14564326121571E-15  -5.00000000000000E-01  -5.00000000000000E-01   0.00000000000000E+00   0.00000000000000E+00
      0.00000000000000E+00   0.00000000000000E+00   0.00000000000000E+00  -5.71068548266028E-16
      8.16035008374628E-01
      0.00000000000000E+00   0.00000000000000E+00   0.00000000000000E+00   0.00000000000000E+00  -2.20127268716345E-16
     -6.47471211817759E-19  -2.20774739928163E-16   5.56063236633604E-16   8.16035008374628E-01   8.16035008374628E-01
      0.00000000000000E+00   0.00000000000000E+00   2.28315058434805E-16   4.06462207264486E-20   2.28355704655531E-16
      1.19319011626207E-15  -5.00000000000000E-01  -5.00000000000000E-01   0.00000000000000E+00   0.00000000000000E+00
      0.00000000000000E+00   0.00000000000000E+00   0.00000000000000E+00  -6.09427610017972E-16
      9.51204693471714E-01
      0.00000000000000E+00   0.00000000000000E+00   0.00000000000000E+00   0.00000000000000E+00  -3.96933760375159E-16
     -1.25200436847965E-18  -3.98185764743639E-16   5.48778121336026E-16   9.51204693471714E-01   9.51204693471714E-01
      0.00000000000000E+00   0.00000000000000E+00   3.87275229464854E-16   4.07873816355793E-20   3.87316016846489E-16
      1.24898444398683E-15  -5.00000000000000E-01  -5.00000000000000E-01   0.00000000000000E+00   0.00000000000000E+00
      0.00000000000000E+00   0.00000000000000E+00   0.00000000000000E+00  -6.44620755013222E-16
      1.00000000000000E+00
      0.00000000000000E+00   0.00000000000000E+00   0.00000000000000E+00   0.00000000000000E+00  -4.11676948818077E-16
     -1.35574009272150E-18  -4.13032688910799E-16   5.47884070184630E-16   1.00000000000000E+00   1.00000000000000E+00
      0.00000000000000E+00   0.00000000000000E+00   4.14766167830784E-16   4.08391929358803E-20   4.14807007023719E-16
      1.26975714402355E-15  -5.00000000000000E-01  -5.00000000000000E-01   0.00000000000000E+00   0.00000000000000E+00
      0.00000000000000E+00   0.00000000000000E+00   0.00000000000000E+00  -6.54474676664866E-16
      0.00000000000000E+00
      0.00000000000000E+00   0.00000000000000E+00   0.00000000000000E+00   0.00000000000000E+00  -4.19443097082448E-16
     -1.35573918678135E-18  -4.20798836269230E-16   5.47884077699307E-16   1.00000000000000E+00   1.00000000000000E+00
      0.00000000000000E+00   0.00000000000000E+00   4.23796420538248E-16   4.08391929542751E-20   4.23837259731202E-16
      1.26975714846250E-15  -5.00000000000000E-01  -5.00000000000000E-01   0.00000000000000E+00   0.00000000000000E+00
      0.00000000000000E+00   0.00000000000000E+00   0.00000000000000E+00  -6.54474664330606E-16
      1.00000000000000E-03
      0.00000000000000E+00   0.00000000000000E+00   0.00000000000000E+00   0.00000000000000E+00  -4.11666266153699E-16
     -1.35353812816849E-18  -4.13019804281867E-16   5.47792563856486E-16   1.00000000000000E+00   1.00000000000000E+00
      0.00000000000000E+00   0.00000000000000E+00   4.12187382937125E-16   4.08392329395648E-20   4.12228222170065E-16
      1.26942370232574E-15  -4.98000000000000E-01  -4.98000000000000E-01   0.00000000000000E+00   0.00000000000000E+00
      0.00000000000000E+00   0.00000000000000E+00   0.00000000000000E+00  -6.52531365070056E-16
      2.17333333333333E-03
      0.00000000000000E+00   0.00000000000000E+00   0.00000000000000E+00   0.00000000000000E+00  -4.18125513263997E-16
     -1.35103186810123E-18  -4.19476545132099E-16   5.47684384169845E-16   1.00000000000000E+00   1.00000000000000E+00
      0.00000000000000E+00   0.00000000000000E+00   4.19928917539856E-16   4.08392783724023E-20   4.19969756818229E-16
      1.26903167243396E-15  -4.95653333333333E-01  -4.95653333333333E-01   0.00000000000000E+00   0.00000000000000E+00
      0.00000000000000E+00   0.00000000000000E+00   0.00000000000000E+00  -6.50255666350878E-16
      3.56568888888889E-03
      0.00000000000000E+00   0.00000000000000E+00   0.00000000000000E+00   0.00000000000000E+00  -4.12934283520223E-16
     -1.34814984671847E-18  -4.14282433366942E-16   5.47555001170390E-16   1.00000000000000E+00   1.00000000000000E+00
      0.00000000000000E+00   0.00000000000000E+00   4.07030321966741E-16   4.08393304996264E-20   4.07071161297241E-16
      1.26856542993419E-15  -4.92868622222222E-01  -4.92868622222222E-01   0.00000000000000E+00   0.00000000000000E+00
      0.00000000000000E+00   0.00000000000000E+00   0.00000000000000E+00  -6.47561234481221E-16
      5.21795081481481E-03
      0.00000000000000E+00   0.00000000000000E+00   0.00000000000000E+00   0.00000000000000E+00  -4.09682719518589E-16
     -1.34486509515355E-18  -4.11027584613742E-16   5.47399985965298E-16   1.00000000000000E+00   1.00000000000000E+00
      0.00000000000000E+00   0.00000000000000E+00   4.27242047452164E-16   4.08393897114720E-20   4.27282886841875E-16
      1.26801066514911E-15  -4.89564098370370E-01  -4.89564098370370E-01   0.00000000000000E+00   0.00000000000000E+00
      0.00000000000000E+00   0.00000000000000E+00   0.00000000000000E+00  -6.44372533993740E-16
      7.17863496691358E-03
      0.00000000000000E+00   0.00000000000000E+00   0.00000000000000E+00   0.00000000000000E+00  -4.15488288425761E-16
     -1.34115783743861E-18  -4.16829446263200E-16   5.47213927321313E-16   1.00000000000000E+00   1.00000000000000E+00
      0.00000000000000E+00   0.00000000000000E+00   4.12623815838281E-16   4.08394562197517E-20   4.12664655294501E-16
      1.26735023360363E-15  -4.85642730066173E-01  -4.85642730066173E-01   0.00000000000000E+00   0.00000000000000E+00
      0.00000000000000E+00   0.00000000000000E+00   0.00000000000000E+00  -6.40600976859381E-16
      9.50531349407078E-03
      0.00000000000000E+00   0.00000000000000E+00   0.00000000000000E+00   0.00000000000000E+00  -4.28408582130795E-16
     -1.33702705847544E-18  -4.29745609189270E-16   5.46990135932436E-16   1.00000000000000E+00   1.00000000000000E+00
      0.00000000000000E+00   0.00000000000000E+00   4.16925487991397E-16   4.08395298097312E-20   4.16966327521207E-16
      1.26656353316427E-15  -4.80989373011858E-01  -4.80989373011858E-01   0.00000000000000E+00   0.00000000000000E+00
      0.00000000000000E+00   0.00000000000000E+00   0.00000000000000E+00  -6.36143013346566E-16
      1.22663053462973E-02
      0.00000000000000E+00   0.00000000000000E+00   0.00000000000000E+00   0.00000000000000E+00  -4.25797438275889E-16
     -1.33250560735394E-18  -4.27129943883243E-16   5.46720267127265E-16   1.00000000000000E+00   1.00000000000000E+00
      0.00000000000000E+00   0.00000000000000E+00   4.16067072992044E-16   4.08396095112645E-20   4.16107912601555E-16
      1.26562574080098E-15  -4.75467389307405E-01  -4.75467389307405E-01   0.00000000000000E+00   0.00000000000000E+00
      0.00000000000000E+00   0.00000000000000E+00   0.00000000000000E+00  -6.30878058657707E-16
      1.55426823442728E-02
      0.00000000000000E+00   0.00000000000000E+00   0.00000000000000E+00   0.00000000000000E+00  -4.12186557646937E-16
     -1.32768038741542E-18  -4.13514238034353E-16   5.46393831318678E-16   1.00000000000000E+00   1.00000000000000E+00
      0.00000000000000E+00   0.00000000000000E+00   4.19078134884837E-16   4.08396931530404E-20   4.19118974577990E-16
      1.26450687309547E-15  -4.68914635311454E-01  -4.68914635311454E-01   0.00000000000000E+00   0.00000000000000E+00
      0.00000000000000E+00   0.00000000000000E+00   0.00000000000000E+00  -6.24666313896979E-16
      1.94306497152037E-02
      0.00000000000000E+00   0.00000000000000E+00   0.00000000000000E+00   0.00000000000000E+00  -4.23806697173276E-16
     -1.32272519884608E-18  -4.25129422372122E-16   5.45997502983868E-16   1.00000000000000E+00   1.00000000000000E+00
      0.00000000000000E+00   0.00000000000000E+00   4.20798450428231E-16   4.08397766379974E-20   4.20839290204869E-16
      1.26317059994083E-15  -4.61138700569592E-01  -4.61138700569592E-01   0.00000000000000E+00   0.00000000000000E+00
      0.00000000000000E+00   0.00000000000000E+00   0.00000000000000E+00  -6.17346659866093E-16
      2.40443709953751E-02
      0.00000000000000E+00   0.00000000000000E+00   0.00000000000000E+00   0.00000000000000E+00  -4.30251251391927E-16
     -1.31795609829001E-18  -4.31569207490217E-16   5.45514107155462E-16   1.00000000000000E+00   1.00000000000000E+00
      0.00000000000000E+00   0.00000000000000E+00   4.30686963549634E-16   4.08398527277487E-20   4.30727803402361E-16
      1.26157272633950E-15  -4.51911258009250E-01  -4.51911258009250E-01   0.00000000000000E+00   0.00000000000000E+00
      0.00000000000000E+00   0.00000000000000E+00   0.00000000000000E+00  -6.08734888430253E-16
      2.95193202478451E-02
      0.00000000000000E+00   0.00000000000000E+00   0.00000000000000E+00   0.00000000000000E+00  -4.12765127539922E-16
     -1.31392204944882E-18  -4.14079049589371E-16   5.44921120632505E-16   1.00000000000000E+00   1.00000000000000E+00
      0.00000000000000E+00   0.00000000000000E+00   4.34983542044171E-16   4.08399090665081E-20   4.35024381953238E-16
      1.25965924561947E-15  -4.40961359504310E-01  -4.40961359504310E-01   0.00000000000000E+00   0.00000000000000E+00
      0.00000000000000E+00   0.00000000000000E+00   0.00000000000000E+00  -5.98622655045285E-16
      3.59432607040766E-02
      0.00000000000000E+00   0.00000000000000E+00   0.00000000000000E+00   0.00000000000000E+00  -4.12753394633456E-16
     -1.31155529804762E-18  -4.14064949931504E-16   5.44196918214755E-16   1.00000000000000E+00   1.00000000000000E+00
      0.00000000000000E+00   0.00000000000000E+00   4.22507547382609E-16   4.08399253372187E-20   4.22548387307947E-16
      1.25738982315756E-15  -4.28113478591847E-01  -4.28113478591847E-01   0.00000000000000E+00   0.00000000000000E+00
      0.00000000000000E+00   0.00000000000000E+00   0.00000000000000E+00  -5.86909804901222E-16
      4.34806841727216E-02
      0.00000000000000E+00   0.00000000000000E+00   0.00000000000000E+00   0.00000000000000E+00  -4.31515941033325E-16
     -1.31231203048781E-18  -4.32828253063813E-16   5.43304740079183E-16   1.00000000000000E+00   1.00000000000000E+00
      0.00000000000000E+00   0.00000000000000E+00   4.13465465500991E-16   4.08398697522437E-20   4.13506305370743E-16
      1.25469301290506E-15  -4.13038631654557E-01  -4.13038631654557E-01   0.00000000000000E+00   0.00000000000000E+00
      0.00000000000000E+00   0.00000000000000E+00   0.00000000000000E+00  -5.73383191329510E-16
      5.23245943759316E-02
      0.00000000000000E+00   0.00000000000000E+00   0.00000000000000E+00   0.00000000000000E+00  -4.27021128015599E-16
     -1.31865335445225E-18  -4.28339781370052E-16   5.42193196405176E-16   1.00000000000000E+00   1.00000000000000E+00