DF-ISE text

Info {
  version   = 1.0
  type      = xyplot
  datasets  = [
    "time"
    "S OuterVoltage" "S InnerVoltage" "S QuasiFermiPotential" "S DisplacementCurrent" "S eCurrent"
    "S hCurrent" "S TotalCurrent" "S Charge" "D OuterVoltage" "D InnerVoltage"
    "D QuasiFermiPotential" "D DisplacementCurrent" "D eCurrent" "D hCurrent" "D TotalCurrent"
    "D Charge" "G OuterVoltage" "G InnerVoltage" "G QuasiFermiPotential" "G DisplacementCurrent"
    "G eCurrent" "G hCurrent" "G TotalCurrent" "G Charge" ]
  functions = [
    Time
    OuterVoltage InnerVoltage QuasiFermiPotential DisplacementCurrent eCurrent
    hCurrent TotalCurrent Charge OuterVoltage InnerVoltage
    QuasiFermiPotential DisplacementCurrent eCurrent hCurrent TotalCurrent
    Charge OuterVoltage InnerVoltage QuasiFermiPotential DisplacementCurrent
    eCurrent hCurrent TotalCurrent Charge ]
}

Data {
      0.00000000000000E+00
      0.00000000000000E+00   0.00000000000000E+00   0.00000000000000E+00   0.00000000000000E+00  -2.79697582733603E-18
      3.66636522604491E-36  -2.79697582733603E-18   8.10225998995547E-16   0.00000000000000E+00   0.00000000000000E+00
      0.00000000000000E+00   0.00000000000000E+00  -1.97355702208722E-18   1.93738466812892E-35  -1.97355702208722E-18
      9.89285942672889E-16  -5.00000000000000E-01  -5.00000000000000E-01   0.00000000000000E+00   0.00000000000000E+00
      0.00000000000000E+00   0.00000000000000E+00   0.00000000000000E+00  -4.13133182199295E-16
      0.00000000000000E+00
      0.00000000000000E+00   0.00000000000000E+00   0.00000000000000E+00   0.00000000000000E+00  -8.29576299256808E-18
     -1.82812901013752E-30  -8.29576299256991E-18   8.10225991837825E-16   0.00000000000000E+00   0.00000000000000E+00
      0.00000000000000E+00   0.00000000000000E+00  -3.16844964553503E-17  -1.82803879400327E-30  -3.16844964553521E-17
      9.89285934721114E-16  -5.00000000000000E-01  -5.00000000000000E-01   0.00000000000000E+00   0.00000000000000E+00
      0.00000000000000E+00   0.00000000000000E+00   0.00000000000000E+00  -4.13133182214050E-16
      1.00000000000000E-03
      0.00000000000000E+00   0.00000000000000E+00   0.00000000000000E+00   0.00000000000000E+00  -3.48595123643987E-18
     -7.34690804505160E-23  -3.48602470552032E-18   8.10064472450294E-16   1.00000000000000E-03   1.00000000000000E-03
      0.00000000000000E+00   0.00000000000000E+00  -2.19692132441502E-17   1.33590002679853E-22  -2.19690796541475E-17
      9.89769498648545E-16  -5.00000000000000E-01  -5.00000000000000E-01   0.00000000000000E+00   0.00000000000000E+00
      0.00000000000000E+00   0.00000000000000E+00   0.00000000000000E+00  -4.13543725404183E-16
      2.17333333333333E-03
      0.00000000000000E+00   0.00000000000000E+00   0.00000000000000E+00   0.00000000000000E+00   8.74433529840486E-18
     -1.59535738795223E-22   8.74417576266606E-18   8.09877893289965E-16   2.17333333333333E-03   2.17333333333333E-03
      0.00000000000000E+00   0.00000000000000E+00  -5.46464971548764E-18   2.87411194766337E-22  -5.46436230429287E-18
      9.90339734876229E-16  -5.00000000000000E-01  -5.00000000000000E-01   0.00000000000000E+00   0.00000000000000E+00
      0.00000000000000E+00   0.00000000000000E+00   0.00000000000000E+00  -4.14021156057798E-16
      3.56568888888889E-03
      0.00000000000000E+00   0.00000000000000E+00   0.00000000000000E+00   0.00000000000000E+00  -8.13498685300323E-18
     -2.61425620170303E-22  -8.13524827862340E-18   8.09660574621420E-16   3.56568888888889E-03   3.56568888888889E-03
      0.00000000000000E+00   0.00000000000000E+00  -2.98075353552462E-17   4.65845473241513E-22  -2.98070695097729E-17
      9.91020369107998E-16  -5.00000000000000E-01  -5.00000000000000E-01   0.00000000000000E+00   0.00000000000000E+00
      0.00000000000000E+00   0.00000000000000E+00   0.00000000000000E+00  -4.14581755836071E-16
      5.21795081481481E-03
      0.00000000000000E+00   0.00000000000000E+00   0.00000000000000E+00   0.00000000000000E+00  -9.59593845412457E-19
     -3.81926475166652E-22  -9.59975771887624E-19   8.09408369821974E-16   5.21795081481481E-03   5.21795081481481E-03
      0.00000000000000E+00   0.00000000000000E+00   9.44646875742470E-18   6.71804160459520E-22   9.44714056158516E-18
      9.91833512499146E-16  -5.00000000000000E-01  -5.00000000000000E-01   0.00000000000000E+00   0.00000000000000E+00
      0.00000000000000E+00   0.00000000000000E+00   0.00000000000000E+00  -4.15238730055870E-16
      7.17863496691358E-03
      0.00000000000000E+00   0.00000000000000E+00   0.00000000000000E+00   0.00000000000000E+00   7.55981818326539E-18
     -5.24222818585843E-22   7.55929396044680E-18   8.09116983472045E-16   7.17863496691358E-03   7.17863496691358E-03
      0.00000000000000E+00   0.00000000000000E+00   2.04783499534410E-17   9.08079881925839E-22   2.04792580333229E-17
      9.92805972553767E-16  -5.00000000000000E-01  -5.00000000000000E-01   0.00000000000000E+00   0.00000000000000E+00
      0.00000000000000E+00   0.00000000000000E+00   0.00000000000000E+00  -4.16006835849434E-16
      9.50531349407078E-03
      0.00000000000000E+00   0.00000000000000E+00   0.00000000000000E+00   0.00000000000000E+00  -9.37642096546021E-18
     -6.91910503101917E-22  -9.37711287596331E-18   8.08782127587316E-16   9.50531349407078E-03   9.50531349407078E-03
      0.00000000000000E+00   0.00000000000000E+00   1.45418786349593E-17   1.17706436935902E-21   1.45430556993287E-17
      9.93970276260026E-16  -5.00000000000000E-01  -5.00000000000000E-01   0.00000000000000E+00   0.00000000000000E+00
      0.00000000000000E+00   0.00000000000000E+00   0.00000000000000E+00  -4.16902402153050E-16
      1.22663053462973E-02
      0.00000000000000E+00   0.00000000000000E+00   0.00000000000000E+00   0.00000000000000E+00   7.04024968820774E-18
     -8.88961464521887E-22   7.03936072674322E-18   8.08399790875782E-16   1.22663053462973E-02   1.22663053462973E-02
      0.00000000000000E+00   0.00000000000000E+00   1.85770730763857E-17   1.48035307906497E-21   1.85785534294648E-17
      9.95365945472326E-16  -5.00000000000000E-01  -5.00000000000000E-01   0.00000000000000E+00   0.00000000000000E+00
      0.00000000000000E+00   0.00000000000000E+00   0.00000000000000E+00  -4.17943230693341E-16
      1.55426823442728E-02
      0.00000000000000E+00   0.00000000000000E+00   0.00000000000000E+00   0.00000000000000E+00  -2.94926571393004E-17
     -1.11961398140948E-21  -2.94937767532818E-17   8.07966634646099E-16   1.55426823442728E-02   1.55426823442728E-02
      0.00000000000000E+00   0.00000000000000E+00  -1.26382168768377E-17   1.81820790620051E-21  -1.26363986689315E-17
      9.97041049931486E-16  -5.00000000000000E-01  -5.00000000000000E-01   0.00000000000000E+00   0.00000000000000E+00
      0.00000000000000E+00   0.00000000000000E+00   0.00000000000000E+00  -4.19148365887334E-16
      1.94306497152037E-02
      0.00000000000000E+00   0.00000000000000E+00   0.00000000000000E+00   0.00000000000000E+00  -1.37010140230900E-17
     -1.38820309103949E-21  -1.37024022261811E-17   8.07480435566223E-16   1.94306497152037E-02   1.94306497152037E-02
      0.00000000000000E+00   0.00000000000000E+00   1.13777747577828E-17   2.18884467653316E-21   1.13799636024594E-17
      9.99053962573623E-16  -5.00000000000000E-01  -5.00000000000000E-01   0.00000000000000E+00   0.00000000000000E+00
      0.00000000000000E+00   0.00000000000000E+00   0.00000000000000E+00  -4.20537860611104E-16
      2.40443709953751E-02
      0.00000000000000E+00   0.00000000000000E+00   0.00000000000000E+00   0.00000000000000E+00  -1.61539263924207E-17
     -1.69879758712252E-21  -1.61556251900078E-17   8.06940745750934E-16   2.40443709953751E-02   2.40443709953751E-02
      0.00000000000000E+00   0.00000000000000E+00   7.73024066075247E-18   2.58764271249867E-21   7.73282830346496E-18
      1.00147548607906E-15  -5.00000000000000E-01  -5.00000000000000E-01   0.00000000000000E+00   0.00000000000000E+00
      0.00000000000000E+00   0.00000000000000E+00   0.00000000000000E+00  -4.22132302902002E-16
      2.95193202478451E-02
      0.00000000000000E+00   0.00000000000000E+00   0.00000000000000E+00   0.00000000000000E+00   9.09628812388118E-18
     -2.05485534101865E-21   9.09423326854016E-18   8.06349295706487E-16   2.95193202478451E-02   2.95193202478451E-02
      0.00000000000000E+00   0.00000000000000E+00  -1.20995845941962E-19   3.00629071329192E-21  -1.17989555228670E-19
      1.00439085500625E-15  -5.00000000000000E-01  -5.00000000000000E-01   0.00000000000000E+00   0.00000000000000E+00
      0.00000000000000E+00   0.00000000000000E+00   0.00000000000000E+00  -4.23952808917926E-16
      3.60162600274429E-02
      0.00000000000000E+00   0.00000000000000E+00   0.00000000000000E+00   0.00000000000000E+00  -5.30366332318458E-18
     -2.45859852664784E-21  -5.30612192171122E-18   8.05710592610942E-16   3.60162600274429E-02   3.60162600274429E-02
      0.00000000000000E+00   0.00000000000000E+00   4.08516497226829E-17   3.43228427275073E-21   4.08550820069556E-17
      1.00790203017834E-15  -5.00000000000000E-01  -5.00000000000000E-01   0.00000000000000E+00   0.00000000000000E+00
      0.00000000000000E+00   0.00000000000000E+00   0.00000000000000E+00  -4.26020846151733E-16
      4.36393360355042E-02
      0.00000000000000E+00   0.00000000000000E+00   0.00000000000000E+00   0.00000000000000E+00   6.69912081514284E-18
     -2.90595087931655E-21   6.69621486426352E-18   8.05038653022334E-16   4.36393360355042E-02   4.36393360355042E-02
      0.00000000000000E+00   0.00000000000000E+00   1.79263752641178E-17   3.84477104571222E-21   1.79302200351635E-17
      1.01208116040719E-15  -5.00000000000000E-01  -5.00000000000000E-01   0.00000000000000E+00   0.00000000000000E+00
      0.00000000000000E+00   0.00000000000000E+00   0.00000000000000E+00  -4.28334099825209E-16
      5.25837452182962E-02
      0.00000000000000E+00   0.00000000000000E+00   0.00000000000000E+00   0.00000000000000E+00  -3.63405916995713E-17
     -3.39605651704598E-21  -3.63439877560883E-17   8.04341157626063E-16   5.25837452182962E-02   5.25837452182962E-02
      0.00000000000000E+00   0.00000000000000E+00   4.48255501404683E-17   4.22603268756697E-21   4.48297761731559E-17
      1.01704770038289E-15  -5.00000000000000E-01  -5.00000000000000E-01   0.00000000000000E+00   0.00000000000000E+00
      0.00000000000000E+00   0.00000000000000E+00   0.00000000000000E+00  -4.30915440143646E-16
      6.31977774485428E-02
      0.00000000000000E+00   0.00000000000000E+00   0.00000000000000E+00   0.00000000000000E+00  -1.81193099313034E-17
     -3.93477005224196E-21  -1.81232447013557E-17   8.03616089838252E-16   6.31977774485428E-02   6.31977774485428E-02
      0.00000000000000E+00   0.00000000000000E+00  -1.03298635554176E-17   4.56198858372662E-21  -1.03253015668339E-17
      1.02300107615660E-15  -5.00000000000000E-01  -5.00000000000000E-01   0.00000000000000E+00   0.00000000000000E+00
      0.00000000000000E+00   0.00000000000000E+00   0.00000000000000E+00  -4.33828700727556E-16
      7.56515752653653E-02
      0.00000000000000E+00   0.00000000000000E+00   0.00000000000000E+00   0.00000000000000E+00  -4.35271415001259E-17
     -4.52099102564853E-21  -4.35316624911515E-17   8.02871103029027E-16   7.56515752653653E-02   7.56515752653653E-02
      0.00000000000000E+00   0.00000000000000E+00   3.28898870302856E-17   4.83408142558454E-21   3.28947211117112E-17
      1.03002850124853E-15  -5.00000000000000E-01  -5.00000000000000E-01   0.00000000000000E+00   0.00000000000000E+00
      0.00000000000000E+00   0.00000000000000E+00   0.00000000000000E+00  -4.37092559894785E-16
      9.02640313704371E-02
      0.00000000000000E+00   0.00000000000000E+00   0.00000000000000E+00   0.00000000000000E+00  -3.19247382341192E-17
     -5.17025820518106E-21  -3.19299084923244E-17   8.02093512184482E-16   9.02640313704371E-02   9.02640313704371E-02
      0.00000000000000E+00   0.00000000000000E+00   5.73087279494531E-17   5.03555171892903E-21   5.73137635011720E-17
      1.03827930635817E-15  -5.00000000000000E-01  -5.00000000000000E-01   0.00000000000000E+00   0.00000000000000E+00
      0.00000000000000E+00   0.00000000000000E+00   0.00000000000000E+00  -4.40781484153826E-16
      1.07409313200388E-01
      0.00000000000000E+00   0.00000000000000E+00   0.00000000000000E+00   0.00000000000000E+00  -1.55448243144394E-17
     -5.91635734423411E-21  -1.55507406717837E-17   8.01254522058750E-16   1.07409313200388E-01   1.07409313200388E-01
      0.00000000000000E+00   0.00000000000000E+00   3.15647992075117E-17   5.16741050416515E-21   3.15699666180159E-17
      1.04790737427030E-15  -5.00000000000000E-01  -5.00000000000000E-01   0.00000000000000E+00   0.00000000000000E+00
      0.00000000000000E+00   0.00000000000000E+00   0.00000000000000E+00  -4.45003169888194E-16
      1.27526443880864E-01
      0.00000000000000E+00   0.00000000000000E+00   0.00000000000000E+00   0.00000000000000E+00  -4.26782138086264E-17
     -6.81643924368807E-21  -4.26850302478701E-17   8.00310532626534E-16   1.27526443880864E-01   1.27526443880864E-01
      0.00000000000000E+00   0.00000000000000E+00   4.54663611424676E-17   5.23650576157616E-21   4.54715976482291E-17
      1.05907693991588E-15  -5.00000000000000E-01  -5.00000000000000E-01   0.00000000000000E+00   0.00000000000000E+00
      0.00000000000000E+00   0.00000000000000E+00   0.00000000000000E+00  -4.49898216359779E-16
      1.51130543879289E-01
      0.00000000000000E+00   0.00000000000000E+00   0.00000000000000E+00   0.00000000000000E+00  -6.40402728957265E-17
     -7.94475337987694E-21  -6.40482176491064E-17   7.99217886086297E-16   1.51130543879289E-01   1.51130543879289E-01
      0.00000000000000E+00   0.00000000000000E+00   4.54258634570619E-17   5.25355405048366E-21   4.54311170111124E-17
      1.07198347285870E-15  -5.00000000000000E-01  -5.00000000000000E-01   0.00000000000000E+00   0.00000000000000E+00
      0.00000000000000E+00   0.00000000000000E+00   0.00000000000000E+00  -4.55620585602258E-16
      1.78826021210774E-01
      0.00000000000000E+00   0.00000000000000E+00   0.00000000000000E+00   0.00000000000000E+00  -5.42112279914982E-17
     -9.35633028200761E-21  -5.42205843217802E-17   7.97970183909276E-16   1.78826021210774E-01   1.78826021210774E-01
      0.00000000000000E+00   0.00000000000000E+00   6.72323461762605E-17   5.23457677383017E-21   6.72375807530343E-17
      1.08689656047145E-15  -5.00000000000000E-01  -5.00000000000000E-01   0.00000000000000E+00   0.00000000000000E+00
      0.00000000000000E+00   0.00000000000000E+00   0.00000000000000E+00  -4.62286035028753E-16
      2.11322047946383E-01
      0.00000000000000E+00   0.00000000000000E+00   0.00000000000000E+00   0.00000000000000E+00  -7.71805040964931E-17
     -1.10060654809976E-20  -7.71915101619740E-17   7.96649303912188E-16   2.11322047946383E-01   2.11322047946383E-01
      0.00000000000000E+00   0.00000000000000E+00   5.89857960725076E-17   5.19573446673749E-21   5.89909918069743E-17
      1.10421397094183E-15  -5.00000000000000E-01  -5.00000000000000E-01   0.00000000000000E+00   0.00000000000000E+00
      0.00000000000000E+00   0.00000000000000E+00   0.00000000000000E+00  -4.69902161986379E-16
      2.49450719316165E-01
      0.00000000000000E+00   0.00000000000000E+00   0.00000000000000E+00   0.00000000000000E+00  -5.03683240091440E-17
     -1.26905884778241E-20  -5.03810145976218E-17   7.95423079468207E-16   2.49450719316165E-01   2.49450719316165E-01
      0.00000000000000E+00   0.00000000000000E+00   6.80433203392415E-17   5.14571574695730E-21   6.80484660549885E-17
      1.12447088724370E-15  -5.00000000000000E-01  -5.00000000000000E-01   0.00000000000000E+00   0.00000000000000E+00
      0.00000000000000E+00   0.00000000000000E+00   0.00000000000000E+00  -4.78377620007567E-16
      2.94188360390042E-01
      0.00000000000000E+00   0.00000000000000E+00   0.00000000000000E+00   0.00000000000000E+00  -7.44043440285815E-17
     -1.42022992068032E-20  -7.44185463277883E-17   7.94405915478544E-16   2.94188360390042E-01   2.94188360390042E-01
      0.00000000000000E+00   0.00000000000000E+00   6.03556412111311E-17   5.08841341363940E-21   6.03607296245447E-17
      1.14824508641461E-15  -5.00000000000000E-01  -5.00000000000000E-01   0.00000000000000E+00   0.00000000000000E+00
      0.00000000000000E+00   0.00000000000000E+00   0.00000000000000E+00  -4.87729660139744E-16
      3.46084024035739E-01
      0.00000000000000E+00   0.00000000000000E+00   0.00000000000000E+00   0.00000000000000E+00  -7.86919632789439E-17
     -1.56260991974420E-20  -7.87075893781414E-17   7.93506810369866E-16   3.46084024035739E-01   3.46084024035739E-01
      0.00000000000000E+00   0.00000000000000E+00   8.61178792612030E-17   5.03002356046227E-21   8.61229092847635E-17
      1.17573787766754E-15  -5.00000000000000E-01  -5.00000000000000E-01   0.00000000000000E+00   0.00000000000000E+00
      0.00000000000000E+00   0.00000000000000E+00   0.00000000000000E+00  -4.98200089995215E-16
      4.06282993864748E-01
      0.00000000000000E+00   0.00000000000000E+00   0.00000000000000E+00   0.00000000000000E+00  -7.07651394406842E-17
     -1.74526491531942E-20  -7.07825920898374E-17   7.92434635712380E-16   4.06282993864748E-01   4.06282993864748E-01
      0.00000000000000E+00   0.00000000000000E+00   9.29389688260296E-17   4.99506080065570E-21   9.29439638868303E-17
      1.20733955747688E-15  -5.00000000000000E-01  -5.00000000000000E-01   0.00000000000000E+00   0.00000000000000E+00
      0.00000000000000E+00   0.00000000000000E+00   0.00000000000000E+00  -5.10420650288173E-16
      4.76916451797452E-01
      0.00000000000000E+00   0.00000000000000E+00   0.00000000000000E+00   0.00000000000000E+00  -1.25412415372986E-16
     -2.02684574626690E-20  -1.25432683830449E-16   7.90939768385319E-16   4.76916451797452E-01   4.76916451797452E-01
      0.00000000000000E+00   0.00000000000000E+00   6.37498671650316E-17   5.01010032249047E-21   6.37548772653541E-17
      1.24399624287368E-15  -5.00000000000000E-01  -5.00000000000000E-01   0.00000000000000E+00   0.00000000000000E+00
      0.00000000000000E+00   0.00000000000000E+00   0.00000000000000E+00  -5.25135631601002E-16
      5.58851262999388E-01
      0.00000000000000E+00   0.00000000000000E+00   0.00000000000000E+00   0.00000000000000E+00  -9.94058237116924E-17
     -2.43039962773909E-20  -9.94301277079698E-17   7.89054271950867E-16   5.58851262999388E-01   5.58851262999388E-01
      0.00000000000000E+00   0.00000000000000E+00   1.21155192237267E-16   5.03504131550606E-21   1.21160227278583E-16
      1.28616641907279E-15  -5.00000000000000E-01  -5.00000000000000E-01   0.00000000000000E+00   0.00000000000000E+00
      0.00000000000000E+00   0.00000000000000E+00   0.00000000000000E+00  -5.42470742497914E-16
      6.53895643993635E-01
      0.00000000000000E+00   0.00000000000000E+00   0.00000000000000E+00   0.00000000000000E+00  -1.63333867318173E-16
     -3.12195624188014E-20  -1.63365086880591E-16   7.86349441469013E-16   6.53895643993635E-01   6.53895643993635E-01
      0.00000000000000E+00   0.00000000000000E+00   1.07013777531075E-16   5.05806950083752E-21   1.07018835600576E-16
      1.33445497461452E-15  -5.00000000000000E-01  -5.00000000000000E-01   0.00000000000000E+00   0.00000000000000E+00
      0.00000000000000E+00   0.00000000000000E+00   0.00000000000000E+00  -5.63351589878867E-16
      7.65414384360217E-01
      0.00000000000000E+00   0.00000000000000E+00   0.00000000000000E+00   0.00000000000000E+00  -1.77233109743893E-16
     -4.90371970946755E-20  -1.77282146940987E-16   7.81239829413048E-16   7.65414384360217E-01   7.65414384360217E-01
      0.00000000000000E+00   0.00000000000000E+00   1.59171764181054E-16   5.07948954112958E-21   1.59176843670595E-16
      1.38947355892120E-15  -5.00000000000000E-01  -5.00000000000000E-01   0.00000000000000E+00   0.00000000000000E+00
      0.00000000000000E+00   0.00000000000000E+00   0.00000000000000E+00  -5.90517094155876E-16
      8.94776123185453E-01
      0.00000000000000E+00   0.00000000000000E+00   0.00000000000000E+00   0.00000000000000E+00  -3.62822724203185E-16
     -1.07167441216791E-19  -3.62929891644401E-16   7.71827037883671E-16   8.94776123185453E-01   8.94776123185453E-01
      0.00000000000000E+00   0.00000000000000E+00   4.13833929370461E-16   5.09923625077800E-21   4.13839028606712E-16
      1.45063609996870E-15  -5.00000000000000E-01  -5.00000000000000E-01   0.00000000000000E+00   0.00000000000000E+00
      0.00000000000000E+00   0.00000000000000E+00   0.00000000000000E+00  -6.26676706824887E-16
      1.00000000000000E+00
      0.00000000000000E+00   0.00000000000000E+00   0.00000000000000E+00   0.00000000000000E+00  -4.64221229596697E-16
     -1.73505776014342E-19  -4.64394735372712E-16   7.65718829214409E-16   1.00000000000000E+00   1.00000000000000E+00
      0.00000000000000E+00   0.00000000000000E+00   4.21121416584391E-16   5.11364392193506E-21   4.21126530228313E-16
      1.50126692690529E-15  -5.00000000000000E-01  -5.00000000000000E-01   0.00000000000000E+00   0.00000000000000E+00
      0.00000000000000E+00   0.00000000000000E+00   0.00000000000000E+00  -6.53983822705653E-16
      0.00000000000000E+00
      0.00000000000000E+00   0.00000000000000E+00   0.00000000000000E+00   0.00000000000000E+00  -4.33915044061852E-16
     -1.73505749846193E-19  -4.34088549811698E-16   7.65718831104420E-16   1.00000000000000E+00   1.00000000000000E+00
      0.00000000000000E+00   0.00000000000000E+00   5.00123118689087E-16   5.11364392248210E-21   5.00128232333010E-16
      1.50126692815593E-15  -5.00000000000000E-01  -5.00000000000000E-01   0.00000000000000E+00   0.00000000000000E+00
      0.00000000000000E+00   0.00000000000000E+00   0.00000000000000E+00  -6.53983820200840E-16
      1.00000000000000E-03
      0.00000000000000E+00   0.00000000000000E+00   0.00000000000000E+00   0.00000000000000E+00  -4.47472075018548E-16
     -1.72817862756969E-19  -4.47644892881305E-16   7.65651896240765E-16   1.00000000000000E+00   1.00000000000000E+00
      0.00000000000000E+00   0.00000000000000E+00   4.59710493844182E-16   5.11365803432188E-21   4.59715607502216E-16
      1.50093106024653E-15  -4.98000000000000E-01  -4.98000000000000E-01   0.00000000000000E+00   0.00000000000000E+00
      0.00000000000000E+00   0.00000000000000E+00   0.00000000000000E+00  -6.52108352202136E-16
      2.17333333333333E-03
      0.00000000000000E+00   0.00000000000000E+00   0.00000000000000E+00   0.00000000000000E+00  -4.29874214163903E-16
     -1.72023981737018E-19  -4.30046238145640E-16   7.65572305072722E-16   1.00000000000000E+00   1.00000000000000E+00
      0.00000000000000E+00   0.00000000000000E+00   4.81062944866553E-16   5.11367438049070E-21   4.81068058540933E-16
      1.50053590061668E-15  -4.95653333333333E-01  -4.95653333333333E-01   0.00000000000000E+00   0.00000000000000E+00
      0.00000000000000E+00   0.00000000000000E+00   0.00000000000000E+00  -6.49913185730576E-16
      3.56568888888889E-03
      0.00000000000000E+00   0.00000000000000E+00   0.00000000000000E+00   0.00000000000000E+00  -4.45034394670160E-16
     -1.71098087930920E-19  -4.45205492758091E-16   7.65476532977364E-16   1.00000000000000E+00   1.00000000000000E+00
      0.00000000000000E+00   0.00000000000000E+00   5.00124860565700E-16   5.11369352720852E-21   5.00129974259227E-16
      1.50006558444613E-15  -4.92868622222222E-01  -4.92868622222222E-01   0.00000000000000E+00   0.00000000000000E+00
      0.00000000000000E+00   0.00000000000000E+00   0.00000000000000E+00  -6.47315603396948E-16
      5.21795081481481E-03
      0.00000000000000E+00   0.00000000000000E+00   0.00000000000000E+00   0.00000000000000E+00  -4.57630559577496E-16
     -1.70022755859546E-19  -4.57800582333356E-16   7.65360942192356E-16   1.00000000000000E+00   1.00000000000000E+00
      0.00000000000000E+00   0.00000000000000E+00   4.20420633619788E-16   5.11371587584039E-21   4.20425747335664E-16
      1.49950547990943E-15  -4.89564098370370E-01  -4.89564098370370E-01   0.00000000000000E+00   0.00000000000000E+00
      0.00000000000000E+00   0.00000000000000E+00   0.00000000000000E+00  -6.44243602456366E-16
      7.17863496691358E-03
      0.00000000000000E+00   0.00000000000000E+00   0.00000000000000E+00   0.00000000000000E+00  -4.54294030107062E-16
     -1.68779156620964E-19  -4.54462809263683E-16   7.65221022400347E-16   1.00000000000000E+00   1.00000000000000E+00
      0.00000000000000E+00   0.00000000000000E+00   3.78796972514652E-16   5.11374187219470E-21   3.78802086256524E-16
      1.49883803040266E-15  -4.85642730066173E-01  -4.85642730066173E-01   0.00000000000000E+00   0.00000000000000E+00
      0.00000000000000E+00   0.00000000000000E+00   0.00000000000000E+00  -6.40612940251596E-16
      9.50531349407078E-03
      0.00000000000000E+00   0.00000000000000E+00   0.00000000000000E+00   0.00000000000000E+00  -4.55448129498375E-16
     -1.67348456128041E-19  -4.55615477954503E-16   7.65051068712644E-16   1.00000000000000E+00   1.00000000000000E+00
      0.00000000000000E+00   0.00000000000000E+00   4.37213805723966E-16   5.11377198094896E-21   4.37218919495947E-16
      1.49804208665681E-15  -4.80989373011858E-01  -4.80989373011858E-01   0.00000000000000E+00   0.00000000000000E+00
      0.00000000000000E+00   0.00000000000000E+00   0.00000000000000E+00  -6.36325447230259E-16
      1.22663053462973E-02
      0.00000000000000E+00   0.00000000000000E+00   0.00000000000000E+00   0.00000000000000E+00  -4.38765306241484E-16
     -1.65713019550607E-19  -4.38931019261035E-16   7.64843807763149E-16   1.00000000000000E+00   1.00000000000000E+00
      0.00000000000000E+00   0.00000000000000E+00   4.71275846102955E-16   5.11380666383150E-21   4.71280959909619E-16
      1.49709212126322E-15  -4.75467389307405E-01  -4.75467389307405E-01   0.00000000000000E+00   0.00000000000000E+00
      0.00000000000000E+00   0.00000000000000E+00   0.00000000000000E+00  -6.31267174431403E-16
      1.55426823442728E-02
      0.00000000000000E+00   0.00000000000000E+00   0.00000000000000E+00   0.00000000000000E+00  -4.33080486170017E-16
     -1.63858342754304E-19  -4.33244344512772E-16   7.64589876029328E-16   1.00000000000000E+00   1.00000000000000E+00
      0.00000000000000E+00   0.00000000000000E+00   4.44174730060512E-16   5.11384634094883E-21   4.44179843906853E-16
      1.49595725273175E-15  -4.68914635311454E-01  -4.68914635311454E-01   0.00000000000000E+00   0.00000000000000E+00
      0.00000000000000E+00   0.00000000000000E+00   0.00000000000000E+00  -6.25306527694644E-16
      1.94306497152037E-02
      0.00000000000000E+00   0.00000000000000E+00   0.00000000000000E+00   0.00000000000000E+00  -4.57294202643769E-16
     -1.61775990366175E-19  -4.57455978634135E-16   7.64277084741386E-16   1.00000000000000E+00   1.00000000000000E+00
      0.00000000000000E+00   0.00000000000000E+00   4.66957652366687E-16   5.11389132695185E-21   4.66962766258014E-16
      1.49460003077750E-15  -4.61138700569592E-01  -4.61138700569592E-01   0.00000000000000E+00   0.00000000000000E+00
      0.00000000000000E+00   0.00000000000000E+00   0.00000000000000E+00  -6.18292544397982E-16
      2.40443709953751E-02
      0.00000000000000E+00   0.00000000000000E+00   0.00000000000000E+00   0.00000000000000E+00  -4.69209243989180E-16
     -1.59468363418593E-19  -4.69368712352598E-16   7.63889337222520E-16   1.00000000000000E+00   1.00000000000000E+00
      0.00000000000000E+00   0.00000000000000E+00   4.13829433181869E-16   5.11394171979885E-21   4.13834547123589E-16
      1.49297489769677E-15  -4.51911258009250E-01  -4.51911258009250E-01   0.00000000000000E+00   0.00000000000000E+00
      0.00000000000000E+00   0.00000000000000E+00   0.00000000000000E+00  -6.10053642768410E-16
      2.94578039641095E-02
      0.00000000000000E+00   0.00000000000000E+00   0.00000000000000E+00   0.00000000000000E+00  -4.45854067623445E-16
     -1.56980905619531E-19  -4.46011048529065E-16   7.63410775000789E-16   1.00000000000000E+00   1.00000000000000E+00
      0.00000000000000E+00   0.00000000000000E+00   4.22698629783042E-16   5.11399666698424E-21   4.22703743779709E-16
      1.49104834846936E-15  -4.41084392071781E-01  -4.41084392071781E-01   0.00000000000000E+00   0.00000000000000E+00
      0.00000000000000E+00   0.00000000000000E+00   0.00000000000000E+00  -6.00504972261706E-16
      3.58095653140912E-02
      0.00000000000000E+00   0.00000000000000E+00   0.00000000000000E+00   0.00000000000000E+00  -4.67826800784511E-16
     -1.54359194580760E-19  -4.67981159979092E-16   7.62815399833014E-16   1.00000000000000E+00   1.00000000000000E+00
      0.00000000000000E+00   0.00000000000000E+00   4.36132458151223E-16   5.11405525527561E-21   4.36137572206478E-16
      1.48876120479933E-15  -4.28380869371818E-01  -4.28380869371818E-01   0.00000000000000E+00   0.00000000000000E+00
      0.00000000000000E+00   0.00000000000000E+00   0.00000000000000E+00  -5.89467647053059E-16
      4.32622986314031E-02
      0.00000000000000E+00   0.00000000000000E+00   0.00000000000000E+00   0.00000000000000E+00  -4.46479102913540E-16
     -1.51684670983475E-19  -4.46630787584524E-16   7.62067793263124E-16   1.00000000000000E+00   1.00000000000000E+00
      0.00000000000000E+00   0.00000000000000E+00   4.40254207831276E-16   5.11411566287956E-21   4.40259321946939E-16
      1.48604146917532E-15  -4.13475402737194E-01  -4.13475402737194E-01   0.00000000000000E+00   0.00000000000000E+00
      0.00000000000000E+00   0.00000000000000E+00   0.00000000000000E+00  -5.76754116365827E-16
      5.20068390570490E-02
      0.00000000000000E+00   0.00000000000000E+00   0.00000000000000E+00   0.00000000000000E+00  -4.33890895349145E-16
     -1.49094457486739E-19  -4.34039989806632E-16   7.61118738994494E-16   1.00000000000000E+00   1.00000000000000E+00