DF-ISE text

Info {
  version   = 1.0
  type      = xyplot
  datasets  = [
    "time"
    "S OuterVoltage" "S InnerVoltage" "S QuasiFermiPotential" "S DisplacementCurrent" "S eCurrent"
    "S hCurrent" "S TotalCurrent" "S Charge" "D OuterVoltage" "D InnerVoltage"
    "D QuasiFermiPotential" "D DisplacementCurrent" "D eCurrent" "D hCurrent" "D TotalCurrent"
    "D Charge" "G OuterVoltage" "G InnerVoltage" "G QuasiFermiPotential" "G DisplacementCurrent"
    "G eCurrent" "G hCurrent" "G TotalCurrent" "G Charge" ]
  functions = [
    Time
    OuterVoltage InnerVoltage QuasiFermiPotential DisplacementCurrent eCurrent
    hCurrent TotalCurrent Charge OuterVoltage InnerVoltage
    QuasiFermiPotential DisplacementCurrent eCurrent hCurrent TotalCurrent
    Charge OuterVoltage InnerVoltage QuasiFermiPotential DisplacementCurrent
    eCurrent hCurrent TotalCurrent Charge ]
}

Data {
      0.00000000000000E+00
      0.00000000000000E+00   0.00000000000000E+00   0.00000000000000E+00   0.00000000000000E+00   3.83720550932421E-37
     -7.81660468090637E-34  -7.81276747539704E-34   6.41816587934508E-16   0.00000000000000E+00   0.00000000000000E+00
      0.00000000000000E+00   0.00000000000000E+00  -1.09697083497857E-26  -7.80315731284130E-34  -1.09697091301015E-26
      8.21325363291178E-16  -5.00000000000000E-01  -5.00000000000000E-01   0.00000000000000E+00   0.00000000000000E+00
      0.00000000000000E+00   0.00000000000000E+00   0.00000000000000E+00  -3.70235646516506E-16
      0.00000000000000E+00
      0.00000000000000E+00   0.00000000000000E+00   0.00000000000000E+00   0.00000000000000E+00   2.57085163586597E-18
     -3.08585528973046E-34   2.57085163586597E-18   6.41816587934507E-16   0.00000000000000E+00   0.00000000000000E+00
      0.00000000000000E+00   0.00000000000000E+00   5.12160703506864E-19  -2.84351199380501E-34   5.12160703506864E-19
      8.21325363291176E-16  -5.00000000000000E-01  -5.00000000000000E-01   0.00000000000000E+00   0.00000000000000E+00
      0.00000000000000E+00   0.00000000000000E+00   0.00000000000000E+00  -3.70235646516510E-16
      1.00000000000000E-03
      0.00000000000000E+00   0.00000000000000E+00   0.00000000000000E+00   0.00000000000000E+00  -5.16995073329498E-18
     -7.24946246287691E-22  -5.17067567954127E-18   6.41629729709538E-16   1.00000000000000E-03   1.00000000000000E-03
      0.00000000000000E+00   0.00000000000000E+00   2.06381096991437E-18   7.12754247540883E-22   2.06452372416191E-18
      8.21675229706256E-16  -5.00000000000000E-01  -5.00000000000000E-01   0.00000000000000E+00   0.00000000000000E+00
      0.00000000000000E+00   0.00000000000000E+00   0.00000000000000E+00  -3.70759596301999E-16
      2.17333333333333E-03
      0.00000000000000E+00   0.00000000000000E+00   0.00000000000000E+00   0.00000000000000E+00  -4.86737862279377E-18
     -1.58445399088360E-21  -4.86896307678465E-18   6.41412717038743E-16   2.17333333333333E-03   2.17333333333333E-03
      0.00000000000000E+00   0.00000000000000E+00   3.28245415343791E-18   1.54016366675813E-21   3.28399431710466E-18
      8.22088114318394E-16  -5.00000000000000E-01  -5.00000000000000E-01   0.00000000000000E+00   0.00000000000000E+00
      0.00000000000000E+00   0.00000000000000E+00   0.00000000000000E+00  -3.71370105441289E-16
      3.56568888888889E-03
      0.00000000000000E+00   0.00000000000000E+00   0.00000000000000E+00   0.00000000000000E+00  -7.36937942560404E-18
     -2.61659554014375E-21  -7.37199602114418E-18   6.41158325015858E-16   3.56568888888889E-03   3.56568888888889E-03
      0.00000000000000E+00   0.00000000000000E+00   8.30903575445009E-18   2.50930986506307E-21   8.31154506431516E-18
      8.22581396019860E-16  -5.00000000000000E-01  -5.00000000000000E-01   0.00000000000000E+00   0.00000000000000E+00
      0.00000000000000E+00   0.00000000000000E+00   0.00000000000000E+00  -3.72088599885512E-16
      5.21795081481481E-03
      0.00000000000000E+00   0.00000000000000E+00   0.00000000000000E+00   0.00000000000000E+00  -1.73541479914609E-17
     -3.85808604264938E-21  -1.73580060775035E-17   6.40860850452735E-16   5.21795081481481E-03   5.21795081481481E-03
      0.00000000000000E+00   0.00000000000000E+00   1.56459337708378E-17   3.64104802130346E-21   1.56495748188591E-17
      8.23171434531572E-16  -5.00000000000000E-01  -5.00000000000000E-01   0.00000000000000E+00   0.00000000000000E+00
      0.00000000000000E+00   0.00000000000000E+00   0.00000000000000E+00  -3.72932785485184E-16
      7.17863496691358E-03
      0.00000000000000E+00   0.00000000000000E+00   0.00000000000000E+00   0.00000000000000E+00  -2.45826992551691E-17
     -5.35396776695891E-21  -2.45880532229360E-17   6.40514038598575E-16   7.17863496691358E-03   7.17863496691358E-03
      0.00000000000000E+00   0.00000000000000E+00   1.76669145579890E-17   4.95760566708129E-21   1.76718721636561E-17
      8.23878186695941E-16  -5.00000000000000E-01  -5.00000000000000E-01   0.00000000000000E+00   0.00000000000000E+00
      0.00000000000000E+00   0.00000000000000E+00   0.00000000000000E+00  -3.73922675342289E-16
      9.50531349407078E-03
      0.00000000000000E+00   0.00000000000000E+00   0.00000000000000E+00   0.00000000000000E+00  -2.85966111655943E-17
     -7.15949616546774E-21  -2.86037706617598E-17   6.40111180670520E-16   9.50531349407078E-03   9.50531349407078E-03
      0.00000000000000E+00   0.00000000000000E+00   2.46558368241165E-17   6.48170183165916E-21   2.46623185259481E-17
      8.24726089502554E-16  -5.00000000000000E-01  -5.00000000000000E-01   0.00000000000000E+00   0.00000000000000E+00
      0.00000000000000E+00   0.00000000000000E+00   0.00000000000000E+00  -3.75080624229914E-16
      1.22663053462973E-02
      0.00000000000000E+00   0.00000000000000E+00   0.00000000000000E+00   0.00000000000000E+00  -3.92543802566554E-17
     -9.34231772460663E-21  -3.92637225743800E-17   6.39645300388816E-16   1.22663053462973E-02   1.22663053462973E-02
      0.00000000000000E+00   0.00000000000000E+00   3.41127993280546E-17   8.23501248648724E-21   3.41210343405411E-17
      8.25745182120047E-16  -5.00000000000000E-01  -5.00000000000000E-01   0.00000000000000E+00   0.00000000000000E+00
      0.00000000000000E+00   0.00000000000000E+00   0.00000000000000E+00  -3.76431226049654E-16
      1.55426823442728E-02
      0.00000000000000E+00   0.00000000000000E+00   0.00000000000000E+00   0.00000000000000E+00  -4.22046656982209E-17
     -1.19848328515063E-20  -4.22166505310724E-17   6.39109464187947E-16   1.55426823442728E-02   1.55426823442728E-02
      0.00000000000000E+00   0.00000000000000E+00   4.66121641008462E-17   1.02356971649797E-20   4.66223997980111E-17
      8.26972530039881E-16  -5.00000000000000E-01  -5.00000000000000E-01   0.00000000000000E+00   0.00000000000000E+00
      0.00000000000000E+00   0.00000000000000E+00   0.00000000000000E+00  -3.78001010286432E-16
      1.94306497152037E-02
      0.00000000000000E+00   0.00000000000000E+00   0.00000000000000E+00   0.00000000000000E+00  -5.40380939353314E-17
     -1.51864746402424E-20  -5.40532804099716E-17   6.38497253149743E-16   1.94306497152037E-02   1.94306497152037E-02
      0.00000000000000E+00   0.00000000000000E+00   5.40637125053200E-17   1.24946547088274E-20   5.40762071600288E-17
      8.28454022518841E-16  -5.00000000000000E-01  -5.00000000000000E-01   0.00000000000000E+00   0.00000000000000E+00
      0.00000000000000E+00   0.00000000000000E+00   0.00000000000000E+00  -3.79817866404179E-16
      2.40443709953751E-02
      0.00000000000000E+00   0.00000000000000E+00   0.00000000000000E+00   0.00000000000000E+00  -7.22932409722748E-17
     -1.90653630930802E-20  -7.23123063353679E-17   6.37803429862527E-16   2.40443709953751E-02   2.40443709953751E-02
      0.00000000000000E+00   0.00000000000000E+00   6.72539060183347E-17   1.50102118671202E-20   6.72689162302018E-17
      8.30246614508035E-16  -5.00000000000000E-01  -5.00000000000000E-01   0.00000000000000E+00   0.00000000000000E+00
      0.00000000000000E+00   0.00000000000000E+00   0.00000000000000E+00  -3.81910134457017E-16
      2.95193202478451E-02
      0.00000000000000E+00   0.00000000000000E+00   0.00000000000000E+00   0.00000000000000E+00  -8.77778658908162E-17
     -2.37584403822639E-20  -8.78016243311985E-17   6.37024804503090E-16   2.95193202478451E-02   2.95193202478451E-02
      0.00000000000000E+00   0.00000000000000E+00   8.77699194316497E-17   1.77611738102974E-20   8.77876806054600E-17
      8.32421059482704E-16  -5.00000000000000E-01  -5.00000000000000E-01   0.00000000000000E+00   0.00000000000000E+00
      0.00000000000000E+00   0.00000000000000E+00   0.00000000000000E+00  -3.84305358292758E-16
      3.60162600274429E-02
      0.00000000000000E+00   0.00000000000000E+00   0.00000000000000E+00   0.00000000000000E+00  -1.00575663430664E-16
     -2.94188835988674E-20  -1.00605082314262E-16   6.36161233971269E-16   3.60162600274429E-02   3.60162600274429E-02
      0.00000000000000E+00   0.00000000000000E+00   1.02455238163747E-16   2.06987838119235E-20   1.02475936947559E-16
      8.35065111718210E-16  -5.00000000000000E-01  -5.00000000000000E-01   0.00000000000000E+00   0.00000000000000E+00
      0.00000000000000E+00   0.00000000000000E+00   0.00000000000000E+00  -3.87028841365272E-16
      4.37259618992322E-02
      0.00000000000000E+00   0.00000000000000E+00   0.00000000000000E+00   0.00000000000000E+00  -1.25819744081732E-16
     -3.62094468910851E-20  -1.25855953528624E-16   6.35216593908996E-16   4.37259618992322E-02   4.37259618992322E-02
      0.00000000000000E+00   0.00000000000000E+00   1.24040683941056E-16   2.37394378801183E-20   1.24064423378936E-16
      8.38287084985006E-16  -5.00000000000000E-01  -5.00000000000000E-01   0.00000000000000E+00   0.00000000000000E+00
      0.00000000000000E+00   0.00000000000000E+00   0.00000000000000E+00  -3.90102340801736E-16
      5.28748081204222E-02
      0.00000000000000E+00   0.00000000000000E+00   0.00000000000000E+00   0.00000000000000E+00  -1.49562883776317E-16
     -4.42915283291302E-20  -1.49607175304646E-16   6.34199372514692E-16   5.28748081204222E-02   5.28748081204222E-02
      0.00000000000000E+00   0.00000000000000E+00   1.45466325587860E-16   2.67618165745990E-20   1.45493087404435E-16
      8.42219462793234E-16  -5.00000000000000E-01  -5.00000000000000E-01   0.00000000000000E+00   0.00000000000000E+00
      0.00000000000000E+00   0.00000000000000E+00   0.00000000000000E+00  -3.93543633300448E-16
      6.37314389695677E-02
      0.00000000000000E+00   0.00000000000000E+00   0.00000000000000E+00   0.00000000000000E+00  -1.71872897090601E-16
     -5.38126320352444E-20  -1.71926709722637E-16   6.33122386309531E-16   6.37314389695677E-02   6.37314389695677E-02
      0.00000000000000E+00   0.00000000000000E+00   1.70231871277302E-16   2.96139023947338E-20   1.70261485179697E-16
      8.47022111630030E-16  -5.00000000000000E-01  -5.00000000000000E-01   0.00000000000000E+00   0.00000000000000E+00
      0.00000000000000E+00   0.00000000000000E+00   0.00000000000000E+00  -3.97368008569888E-16
      7.66146409105537E-02
      0.00000000000000E+00   0.00000000000000E+00   0.00000000000000E+00   0.00000000000000E+00  -1.96367639366706E-16
     -6.48989180915090E-20  -1.96432538284797E-16   6.32001208083822E-16   7.66146409105537E-02   7.66146409105537E-02
      0.00000000000000E+00   0.00000000000000E+00   1.96785507863776E-16   3.21349949531058E-20   1.96817642858730E-16
      8.52884761876143E-16  -5.00000000000000E-01  -5.00000000000000E-01   0.00000000000000E+00   0.00000000000000E+00
      0.00000000000000E+00   0.00000000000000E+00   0.00000000000000E+00  -4.01592588431482E-16
      9.17309311879772E-02
      0.00000000000000E+00   0.00000000000000E+00   0.00000000000000E+00   0.00000000000000E+00  -2.32274636050618E-16
     -7.75205471754690E-20  -2.32352156597794E-16   6.30863398016892E-16   9.17309311879772E-02   9.17309311879772E-02
      0.00000000000000E+00   0.00000000000000E+00   2.31456239851656E-16   3.41736749746437E-20   2.31490413526631E-16
      8.59947752167025E-16  -5.00000000000000E-01  -5.00000000000000E-01   0.00000000000000E+00   0.00000000000000E+00
      0.00000000000000E+00   0.00000000000000E+00   0.00000000000000E+00  -4.06192957905273E-16
      1.09467378446821E-01
      0.00000000000000E+00   0.00000000000000E+00   0.00000000000000E+00   0.00000000000000E+00  -2.63441964934407E-16
     -9.17630268178245E-20  -2.63533727961225E-16   6.29720102728088E-16   1.09467378446821E-01   1.09467378446821E-01
      0.00000000000000E+00   0.00000000000000E+00   2.65676341639875E-16   3.56832030710822E-20   2.65712024842946E-16
      8.68431993766051E-16  -5.00000000000000E-01  -5.00000000000000E-01   0.00000000000000E+00   0.00000000000000E+00
      0.00000000000000E+00   0.00000000000000E+00   0.00000000000000E+00  -4.11205211749077E-16
      1.30278143230531E-01
      0.00000000000000E+00   0.00000000000000E+00   0.00000000000000E+00   0.00000000000000E+00  -3.01329143649885E-16
     -1.07734138851366E-19  -3.01436877788736E-16   6.28578575570971E-16   1.30278143230531E-01   1.30278143230531E-01
      0.00000000000000E+00   0.00000000000000E+00   3.00945822071232E-16   3.66990030474461E-20   3.00982521074279E-16
      8.78589784451037E-16  -5.00000000000000E-01  -5.00000000000000E-01   0.00000000000000E+00   0.00000000000000E+00
      0.00000000000000E+00   0.00000000000000E+00   0.00000000000000E+00  -4.16683598634535E-16
      1.54696107243417E-01
      0.00000000000000E+00   0.00000000000000E+00   0.00000000000000E+00   0.00000000000000E+00  -3.32887199210970E-16
     -1.25551404397106E-19  -3.33012750615367E-16   6.27444068542980E-16   1.54696107243417E-01   1.54696107243417E-01
      0.00000000000000E+00   0.00000000000000E+00   3.35763919812751E-16   3.73236161540032E-20   3.35801243428905E-16
      8.90712720469917E-16  -5.00000000000000E-01  -5.00000000000000E-01   0.00000000000000E+00   0.00000000000000E+00
      0.00000000000000E+00   0.00000000000000E+00   0.00000000000000E+00  -4.22698571863491E-16
      1.83346518351870E-01
      0.00000000000000E+00   0.00000000000000E+00   0.00000000000000E+00   0.00000000000000E+00  -3.74795387168692E-16
     -1.45273942289501E-19  -3.74940661110981E-16   6.26323956158159E-16   1.83346518351870E-01   1.83346518351870E-01
      0.00000000000000E+00   0.00000000000000E+00   3.70948986749387E-16   3.76888219581350E-20   3.70986675571345E-16
      9.05142872036023E-16  -5.00000000000000E-01  -5.00000000000000E-01   0.00000000000000E+00   0.00000000000000E+00
      0.00000000000000E+00   0.00000000000000E+00   0.00000000000000E+00  -4.29330561981247E-16
      2.16963000719122E-01
      0.00000000000000E+00   0.00000000000000E+00   0.00000000000000E+00   0.00000000000000E+00  -4.10593173015719E-16
     -1.66689680767008E-19  -4.10759862696486E-16   6.25236401920770E-16   2.16963000719122E-01   2.16963000719122E-01
      0.00000000000000E+00   0.00000000000000E+00   4.15233909717995E-16   3.79152443717571E-20   4.15271824962367E-16
      9.22289694771201E-16  -5.00000000000000E-01  -5.00000000000000E-01   0.00000000000000E+00   0.00000000000000E+00
      0.00000000000000E+00   0.00000000000000E+00   0.00000000000000E+00  -4.36654836386260E-16
      2.56406340030030E-01
      0.00000000000000E+00   0.00000000000000E+00   0.00000000000000E+00   0.00000000000000E+00  -4.53181631145655E-16
     -1.88878045198441E-19  -4.53370509190854E-16   6.24223235281289E-16   2.56406340030030E-01   2.56406340030030E-01
      0.00000000000000E+00   0.00000000000000E+00   4.49739585037830E-16   3.80882157022170E-20   4.49777673253533E-16
      9.42652325513375E-16  -5.00000000000000E-01  -5.00000000000000E-01   0.00000000000000E+00   0.00000000000000E+00
      0.00000000000000E+00   0.00000000000000E+00   0.00000000000000E+00  -4.44718279662986E-16
      3.02686524821497E-01
      0.00000000000000E+00   0.00000000000000E+00   0.00000000000000E+00   0.00000000000000E+00  -4.86194105102928E-16
     -2.10161576750372E-19  -4.86404266679679E-16   6.23340140827449E-16   3.02686524821497E-01   3.02686524821497E-01
      0.00000000000000E+00   0.00000000000000E+00   4.88792214489067E-16   3.82550736106837E-20   4.88830469562678E-16
      9.66819506811608E-16  -5.00000000000000E-01  -5.00000000000000E-01   0.00000000000000E+00   0.00000000000000E+00
      0.00000000000000E+00   0.00000000000000E+00   0.00000000000000E+00  -4.53563041676281E-16
      3.56371539179597E-01
      0.00000000000000E+00   0.00000000000000E+00   0.00000000000000E+00   0.00000000000000E+00  -5.17275037141585E-16
     -2.29265282794139E-19  -5.17504302424379E-16   6.22609408221058E-16   3.56371539179597E-01   3.56371539179597E-01
      0.00000000000000E+00   0.00000000000000E+00   5.16664615004883E-16   3.84340486041212E-20   5.16703049053487E-16
      9.95099306912562E-16  -5.00000000000000E-01  -5.00000000000000E-01   0.00000000000000E+00   0.00000000000000E+00
      0.00000000000000E+00   0.00000000000000E+00   0.00000000000000E+00  -4.63232815075707E-16
      4.18646155834994E-01
      0.00000000000000E+00   0.00000000000000E+00   0.00000000000000E+00   0.00000000000000E+00  -5.53371370199985E-16
     -2.46898674338993E-19  -5.53618268874324E-16   6.21979542876280E-16   4.18646155834994E-01   4.18646155834994E-01
      0.00000000000000E+00   0.00000000000000E+00   5.43909256544536E-16   3.86310540213142E-20   5.43947887598558E-16
      1.02804967817917E-15  -5.00000000000000E-01  -5.00000000000000E-01   0.00000000000000E+00   0.00000000000000E+00
      0.00000000000000E+00   0.00000000000000E+00   0.00000000000000E+00  -4.74015905755058E-16
      4.90884711155255E-01
      0.00000000000000E+00   0.00000000000000E+00   0.00000000000000E+00   0.00000000000000E+00  -5.71442840185430E-16
     -2.62298466110132E-19  -5.71705138651540E-16   6.21460222971787E-16   4.90884711155255E-01   4.90884711155255E-01
      0.00000000000000E+00   0.00000000000000E+00   5.71560628893303E-16   3.88475465382220E-20   5.71599476439841E-16
      1.06637817548182E-15  -5.00000000000000E-01  -5.00000000000000E-01   0.00000000000000E+00   0.00000000000000E+00
      0.00000000000000E+00   0.00000000000000E+00   0.00000000000000E+00  -4.86106441118474E-16
      5.74681435326757E-01
      0.00000000000000E+00   0.00000000000000E+00   0.00000000000000E+00   0.00000000000000E+00  -5.91434883346238E-16
     -2.72789758970934E-19  -5.91707673105209E-16   6.21120992902139E-16   5.74681435326757E-01   5.74681435326757E-01
      0.00000000000000E+00   0.00000000000000E+00   5.86897166337214E-16   3.90838365653284E-20   5.86936250173779E-16
      1.11094570730041E-15  -5.00000000000000E-01  -5.00000000000000E-01   0.00000000000000E+00   0.00000000000000E+00
      0.00000000000000E+00   0.00000000000000E+00   0.00000000000000E+00  -4.99615466414324E-16
      6.71885635365699E-01
      0.00000000000000E+00   0.00000000000000E+00   0.00000000000000E+00   0.00000000000000E+00  -6.00565393208010E-16
     -2.80426224670581E-19  -6.00845819432681E-16   6.20880671718666E-16   6.71885635365699E-01   6.71885635365699E-01
      0.00000000000000E+00   0.00000000000000E+00   6.07482251423787E-16   3.93379151271280E-20   6.07521589338915E-16
      1.16255411535288E-15  -5.00000000000000E-01  -5.00000000000000E-01   0.00000000000000E+00   0.00000000000000E+00
      0.00000000000000E+00   0.00000000000000E+00   0.00000000000000E+00  -5.15002569699871E-16
      7.84642507410872E-01
      0.00000000000000E+00   0.00000000000000E+00   0.00000000000000E+00   0.00000000000000E+00  -6.08426999849379E-16
     -2.86133335570449E-19  -6.08713133184949E-16   6.20704142462014E-16   7.84642507410872E-01   7.84642507410872E-01
      0.00000000000000E+00   0.00000000000000E+00   6.03445821780949E-16   3.96071939504482E-20   6.03485428974899E-16
      1.22212873737617E-15  -5.00000000000000E-01  -5.00000000000000E-01   0.00000000000000E+00   0.00000000000000E+00
      0.00000000000000E+00   0.00000000000000E+00   0.00000000000000E+00  -5.32688342201977E-16
      9.12433629062068E-01
      0.00000000000000E+00   0.00000000000000E+00   0.00000000000000E+00   0.00000000000000E+00  -6.15223780459935E-16
     -2.90194440232566E-19  -6.15513974900167E-16   6.20579517923844E-16   9.12433629062068E-01   9.12433629062068E-01
      0.00000000000000E+00   0.00000000000000E+00   6.20730140601656E-16   3.98819387570047E-20   6.20770022540413E-16
      1.28905490418766E-15  -5.00000000000000E-01  -5.00000000000000E-01   0.00000000000000E+00   0.00000000000000E+00
      0.00000000000000E+00   0.00000000000000E+00   0.00000000000000E+00  -5.52649178219854E-16
      1.00000000000000E+00
      0.00000000000000E+00   0.00000000000000E+00   0.00000000000000E+00   0.00000000000000E+00  -6.16506266883102E-16
     -2.92220329745208E-19  -6.16798487212847E-16   6.20517384460096E-16   1.00000000000000E+00   1.00000000000000E+00
      0.00000000000000E+00   0.00000000000000E+00   6.21821221363943E-16   4.00524900234691E-20   6.21861273853966E-16
      1.33436954576240E-15  -5.00000000000000E-01  -5.00000000000000E-01   0.00000000000000E+00   0.00000000000000E+00
      0.00000000000000E+00   0.00000000000000E+00   0.00000000000000E+00  -5.66329235441577E-16
      0.00000000000000E+00
      0.00000000000000E+00   0.00000000000000E+00   0.00000000000000E+00   0.00000000000000E+00  -6.15978984761543E-16
     -2.92220248847651E-19  -6.16271205010391E-16   6.20517386874653E-16   1.00000000000000E+00   1.00000000000000E+00
      0.00000000000000E+00   0.00000000000000E+00   6.20357539760297E-16   4.00524900353774E-20   6.20397592250333E-16
      1.33436954805645E-15  -5.00000000000000E-01  -5.00000000000000E-01   0.00000000000000E+00   0.00000000000000E+00
      0.00000000000000E+00   0.00000000000000E+00   0.00000000000000E+00  -5.66329230785874E-16
      1.00000000000000E-03
      0.00000000000000E+00   0.00000000000000E+00   0.00000000000000E+00   0.00000000000000E+00  -6.21714654874892E-16
     -2.92127739370857E-19  -6.22006782614262E-16   6.20441460569354E-16   1.00000000000000E+00   1.00000000000000E+00
      0.00000000000000E+00   0.00000000000000E+00   6.18526128066739E-16   4.00525005839250E-20   6.18566180567323E-16
      1.33406209174917E-15  -4.98000000000000E-01  -4.98000000000000E-01   0.00000000000000E+00   0.00000000000000E+00
      0.00000000000000E+00   0.00000000000000E+00   0.00000000000000E+00  -5.64476110233956E-16
      2.17333333333333E-03
      0.00000000000000E+00   0.00000000000000E+00   0.00000000000000E+00   0.00000000000000E+00  -6.16367469124415E-16
     -2.92018252210471E-19  -6.16659487376626E-16   6.20352179742202E-16   1.00000000000000E+00   1.00000000000000E+00
      0.00000000000000E+00   0.00000000000000E+00   6.20353592438949E-16   4.00525130937815E-20   6.20393644952043E-16
      1.33370099715559E-15  -4.95653333333333E-01  -4.95653333333333E-01   0.00000000000000E+00   0.00000000000000E+00
      0.00000000000000E+00   0.00000000000000E+00   0.00000000000000E+00  -5.62305744121011E-16
      3.56568888888889E-03
      0.00000000000000E+00   0.00000000000000E+00   0.00000000000000E+00   0.00000000000000E+00  -6.16804524372794E-16
     -2.91886903808857E-19  -6.17096411276603E-16   6.20245964548009E-16   1.00000000000000E+00   1.00000000000000E+00
      0.00000000000000E+00   0.00000000000000E+00   6.15228143390062E-16   4.00525281401869E-20   6.15268195918202E-16
      1.33327201177533E-15  -4.92868622222222E-01  -4.92868622222222E-01   0.00000000000000E+00   0.00000000000000E+00
      0.00000000000000E+00   0.00000000000000E+00   0.00000000000000E+00  -5.59735854700562E-16
      5.21795081481481E-03
      0.00000000000000E+00   0.00000000000000E+00   0.00000000000000E+00   0.00000000000000E+00  -6.19859419956077E-16
     -2.91729037415505E-19  -6.20151148993493E-16   6.20119543923817E-16   1.00000000000000E+00   1.00000000000000E+00
      0.00000000000000E+00   0.00000000000000E+00   6.14493234500989E-16   4.00525462781565E-20   6.14533287047268E-16
      1.33276225611986E-15  -4.89564098370370E-01  -4.89564098370370E-01   0.00000000000000E+00   0.00000000000000E+00
      0.00000000000000E+00   0.00000000000000E+00   0.00000000000000E+00  -5.56694267328082E-16
      7.17863496691358E-03
      0.00000000000000E+00   0.00000000000000E+00   0.00000000000000E+00   0.00000000000000E+00  -6.17620288234496E-16
     -2.91538870874488E-19  -6.17911827105370E-16   6.19968991331191E-16   1.00000000000000E+00   1.00000000000000E+00
      0.00000000000000E+00   0.00000000000000E+00   6.22539841143297E-16   4.00525682027664E-20   6.22579893711500E-16
      1.33215635816293E-15  -4.85642730066173E-01  -4.85642730066173E-01   0.00000000000000E+00   0.00000000000000E+00
      0.00000000000000E+00   0.00000000000000E+00   0.00000000000000E+00  -5.53096389714405E-16
      9.50531349407078E-03
      0.00000000000000E+00   0.00000000000000E+00   0.00000000000000E+00   0.00000000000000E+00  -6.16935770044205E-16
     -2.91309187072182E-19  -6.17227079231277E-16   6.19789583030095E-16   1.00000000000000E+00   1.00000000000000E+00
      0.00000000000000E+00   0.00000000000000E+00   6.23633204082089E-16   4.00525947895206E-20   6.23673256676878E-16
      1.33143594943471E-15  -4.80989373011858E-01  -4.80989373011858E-01   0.00000000000000E+00   0.00000000000000E+00
      0.00000000000000E+00   0.00000000000000E+00   0.00000000000000E+00  -5.48843374896383E-16
      1.22663053462973E-02
      0.00000000000000E+00   0.00000000000000E+00   0.00000000000000E+00   0.00000000000000E+00  -6.16745313250501E-16
     -2.91030918057514E-19  -6.17036344168558E-16   6.19575621128703E-16   1.00000000000000E+00   1.00000000000000E+00
      0.00000000000000E+00   0.00000000000000E+00   6.13747967795278E-16   4.00526271493205E-20   6.13788020422428E-16
      1.33057905073303E-15  -4.75467389307405E-01  -4.75467389307405E-01   0.00000000000000E+00   0.00000000000000E+00
      0.00000000000000E+00   0.00000000000000E+00   0.00000000000000E+00  -5.43820169565936E-16
      1.55426823442728E-02
      0.00000000000000E+00   0.00000000000000E+00   0.00000000000000E+00   0.00000000000000E+00  -6.22840449700906E-16
     -2.90692578890728E-19  -6.23131142279797E-16   6.19320210145212E-16   1.00000000000000E+00   1.00000000000000E+00
      0.00000000000000E+00   0.00000000000000E+00   6.20694097575707E-16   4.00526667043868E-20   6.20734150242411E-16
      1.32955932080117E-15  -4.68914635311454E-01  -4.68914635311454E-01   0.00000000000000E+00   0.00000000000000E+00
      0.00000000000000E+00   0.00000000000000E+00   0.00000000000000E+00  -5.37893539247639E-16
      1.94306497152037E-02
      0.00000000000000E+00   0.00000000000000E+00   0.00000000000000E+00   0.00000000000000E+00  -6.16232655104163E-16
     -2.90279510684249E-19  -6.16522934614847E-16   6.19014969824225E-16   1.00000000000000E+00   1.00000000000000E+00
      0.00000000000000E+00   0.00000000000000E+00   6.23247800771818E-16   4.00527152910943E-20   6.23287853487109E-16
      1.32834513475354E-15  -4.61138700569592E-01  -4.61138700569592E-01   0.00000000000000E+00   0.00000000000000E+00
      0.00000000000000E+00   0.00000000000000E+00   0.00000000000000E+00  -5.30910237417923E-16
      2.40443709953751E-02
      0.00000000000000E+00   0.00000000000000E+00   0.00000000000000E+00   0.00000000000000E+00  -6.21686221075036E-16
     -2.89772864749514E-19  -6.21975993939785E-16   6.18649657924540E-16   1.00000000000000E+00   1.00000000000000E+00
      0.00000000000000E+00   0.00000000000000E+00   6.17749462932097E-16   4.00527753000487E-20   6.17789515707397E-16
      1.32689845378022E-15  -4.51911258009250E-01  -4.51911258009250E-01   0.00000000000000E+00   0.00000000000000E+00
      0.00000000000000E+00   0.00000000000000E+00   0.00000000000000E+00  -5.22695603723273E-16
      2.95193202478451E-02
      0.00000000000000E+00   0.00000000000000E+00   0.00000000000000E+00   0.00000000000000E+00  -6.21261300905798E-16
     -2.89148180845555E-19  -6.21550449086643E-16   6.18211661894501E-16   1.00000000000000E+00   1.00000000000000E+00
      0.00000000000000E+00   0.00000000000000E+00   6.13712709919783E-16   4.00528498761415E-20   6.13752762769659E-16
      1.32517344700842E-15  -4.40961359504310E-01  -4.40961359504310E-01   0.00000000000000E+00   0.00000000000000E+00
      0.00000000000000E+00   0.00000000000000E+00   0.00000000000000E+00  -5.13053065082603E-16
      3.60162600274429E-02
      0.00000000000000E+00   0.00000000000000E+00   0.00000000000000E+00   0.00000000000000E+00  -6.17045917520674E-16
     -2.88373554338897E-19  -6.17334291075013E-16   6.17685283218177E-16   1.00000000000000E+00   1.00000000000000E+00
      0.00000000000000E+00   0.00000000000000E+00   6.20651161963165E-16   4.00529431817920E-20   6.20691214906347E-16
      1.32311482709181E-15  -4.27967479945114E-01  -4.27967479945114E-01   0.00000000000000E+00   0.00000000000000E+00
      0.00000000000000E+00   0.00000000000000E+00   0.00000000000000E+00  -5.01765354574430E-16
      4.37259618992322E-02
      0.00000000000000E+00   0.00000000000000E+00   0.00000000000000E+00   0.00000000000000E+00  -6.14823620780051E-16
     -2.87407341031669E-19  -6.15111028121083E-16   6.17050682791243E-16   1.00000000000000E+00   1.00000000000000E+00
      0.00000000000000E+00   0.00000000000000E+00   6.23561129599591E-16   4.00530607358138E-20   6.23601182660327E-16
      1.32065587642208E-15  -4.12548076201536E-01  -4.12548076201536E-01   0.00000000000000E+00   0.00000000000000E+00
      0.00000000000000E+00   0.00000000000000E+00   0.00000000000000E+00  -4.88598919432784E-16
      5.28748081204222E-02
      0.00000000000000E+00   0.00000000000000E+00   0.00000000000000E+00   0.00000000000000E+00  -6.18721809962198E-16
     -2.86195302949404E-19  -6.19008005265147E-16   6.16282253162704E-16   1.00000000000000E+00   1.00000000000000E+00