DF-ISE text

Info {
  version   = 1.0
  type      = xyplot
  datasets  = [
    "time"
    "S OuterVoltage" "S InnerVoltage" "S QuasiFermiPotential" "S DisplacementCurrent" "S eCurrent"
    "S hCurrent" "S TotalCurrent" "S Charge" "D OuterVoltage" "D InnerVoltage"
    "D QuasiFermiPotential" "D DisplacementCurrent" "D eCurrent" "D hCurrent" "D TotalCurrent"
    "D Charge" "G OuterVoltage" "G InnerVoltage" "G QuasiFermiPotential" "G DisplacementCurrent"
    "G eCurrent" "G hCurrent" "G TotalCurrent" "G Charge" ]
  functions = [
    Time
    OuterVoltage InnerVoltage QuasiFermiPotential DisplacementCurrent eCurrent
    hCurrent TotalCurrent Charge OuterVoltage InnerVoltage
    QuasiFermiPotential DisplacementCurrent eCurrent hCurrent TotalCurrent
    Charge OuterVoltage InnerVoltage QuasiFermiPotential DisplacementCurrent
    eCurrent hCurrent TotalCurrent Charge ]
}

Data {
      0.00000000000000E+00
      0.00000000000000E+00   0.00000000000000E+00   0.00000000000000E+00   0.00000000000000E+00  -8.31927225818714E-19
     -2.96732550700803E-35  -8.31927225818714E-19   3.85999192636197E-16   0.00000000000000E+00   0.00000000000000E+00
      0.00000000000000E+00   0.00000000000000E+00   2.71561349554092E-22  -1.24432967910139E-34   2.71561349553968E-22
      5.47318747505366E-16  -5.00000000000000E-01  -5.00000000000000E-01   0.00000000000000E+00   0.00000000000000E+00
      0.00000000000000E+00   0.00000000000000E+00   0.00000000000000E+00  -3.89267676300539E-16
      0.00000000000000E+00
      0.00000000000000E+00   0.00000000000000E+00   0.00000000000000E+00   0.00000000000000E+00   6.65625708753470E-18
      1.24312405053941E-31   6.65625708753482E-18   3.85999192621312E-16   0.00000000000000E+00   0.00000000000000E+00
      0.00000000000000E+00   0.00000000000000E+00  -4.95943993415318E-18   1.25013135637969E-31  -4.95943993415306E-18
      5.47318747468295E-16  -5.00000000000000E-01  -5.00000000000000E-01   0.00000000000000E+00   0.00000000000000E+00
      0.00000000000000E+00   0.00000000000000E+00   0.00000000000000E+00  -3.89267676301047E-16
      1.00000000000000E-03
      0.00000000000000E+00   0.00000000000000E+00   0.00000000000000E+00   0.00000000000000E+00   6.62037473870012E-18
     -2.47363550173964E-22   6.62012737514995E-18   3.85956318725356E-16   1.00000000000000E-03   1.00000000000000E-03
      0.00000000000000E+00   0.00000000000000E+00  -2.49803363365564E-18   8.49295665333990E-22  -2.49718433799031E-18
      5.47631759059826E-16  -5.00000000000000E-01  -5.00000000000000E-01   0.00000000000000E+00   0.00000000000000E+00
      0.00000000000000E+00   0.00000000000000E+00   0.00000000000000E+00  -3.89582836865334E-16
      2.17333333333333E-03
      0.00000000000000E+00   0.00000000000000E+00   0.00000000000000E+00   0.00000000000000E+00  -6.70065598504123E-18
     -5.38224976960008E-22  -6.70119421001819E-18   3.85906327567918E-16   2.17333333333333E-03   2.17333333333333E-03
      0.00000000000000E+00   0.00000000000000E+00   2.47328622260840E-18   1.81607450664607E-21   2.47510229711504E-18
      5.47999216014854E-16  -5.00000000000000E-01  -5.00000000000000E-01   0.00000000000000E+00   0.00000000000000E+00
      0.00000000000000E+00   0.00000000000000E+00   0.00000000000000E+00  -3.89951454250903E-16
      3.56568888888889E-03
      0.00000000000000E+00   0.00000000000000E+00   0.00000000000000E+00   0.00000000000000E+00   1.65162586440178E-18
     -8.84308044391413E-22   1.65074155635739E-18   3.85847428581951E-16   3.56568888888889E-03   3.56568888888889E-03
      0.00000000000000E+00   0.00000000000000E+00  -2.42670450265353E-18   2.92284235580243E-21  -2.42378166029773E-18
      5.48435511135090E-16  -5.00000000000000E-01  -5.00000000000000E-01   0.00000000000000E+00   0.00000000000000E+00
      0.00000000000000E+00   0.00000000000000E+00   0.00000000000000E+00  -3.90387299689314E-16
      5.21795081481481E-03
      0.00000000000000E+00   0.00000000000000E+00   0.00000000000000E+00   0.00000000000000E+00   4.13177479123336E-18
     -1.29639694748272E-21   4.13047839428587E-18   3.85778105278573E-16   5.21795081481481E-03   5.21795081481481E-03
      0.00000000000000E+00   0.00000000000000E+00   6.33652167755408E-20   4.18112048865137E-21   6.75463372641922E-20
      5.48953562026442E-16  -5.00000000000000E-01  -5.00000000000000E-01   0.00000000000000E+00   0.00000000000000E+00
      0.00000000000000E+00   0.00000000000000E+00   0.00000000000000E+00  -3.90902375320568E-16
      7.17863496691358E-03
      0.00000000000000E+00   0.00000000000000E+00   0.00000000000000E+00   0.00000000000000E+00   3.30082074446317E-18
     -1.78755559331465E-21   3.29903318886985E-18   3.85696600677615E-16   7.17863496691358E-03   7.17863496691358E-03
      0.00000000000000E+00   0.00000000000000E+00   4.22527698212391E-18   5.59982408196211E-21   4.23087680620588E-18
      5.49568704391481E-16  -5.00000000000000E-01  -5.00000000000000E-01   0.00000000000000E+00   0.00000000000000E+00
      0.00000000000000E+00   0.00000000000000E+00   0.00000000000000E+00  -3.91510763296457E-16
      9.50531349407078E-03
      0.00000000000000E+00   0.00000000000000E+00   0.00000000000000E+00   0.00000000000000E+00   5.58468590081489E-18
     -2.37372421741574E-21   5.58231217659748E-18   3.85600877963134E-16   9.50531349407078E-03   9.50531349407078E-03
      0.00000000000000E+00   0.00000000000000E+00   8.18116913344247E-18   7.18356025683359E-21   8.18835269369930E-18
      5.50299132091233E-16  -5.00000000000000E-01  -5.00000000000000E-01   0.00000000000000E+00   0.00000000000000E+00
      0.00000000000000E+00   0.00000000000000E+00   0.00000000000000E+00  -3.92228992075938E-16
      1.22663053462973E-02
      0.00000000000000E+00   0.00000000000000E+00   0.00000000000000E+00   0.00000000000000E+00   4.11966442439042E-18
     -3.07454297069143E-21   4.11658988141972E-18   3.85488569303929E-16   1.22663053462973E-02   1.22663053462973E-02
      0.00000000000000E+00   0.00000000000000E+00   6.77111351842745E-18   8.93052450159310E-21   6.78004404292904E-18
      5.51166406740645E-16  -5.00000000000000E-01  -5.00000000000000E-01   0.00000000000000E+00   0.00000000000000E+00
      0.00000000000000E+00   0.00000000000000E+00   0.00000000000000E+00  -3.93076486960261E-16
      1.55426823442728E-02
      0.00000000000000E+00   0.00000000000000E+00   0.00000000000000E+00   0.00000000000000E+00  -7.58464477531854E-18
     -3.91453260412467E-21  -7.58855930792267E-18   3.85356904410178E-16   1.55426823442728E-02   1.55426823442728E-02
      0.00000000000000E+00   0.00000000000000E+00   5.96087861818156E-18   1.08300825625774E-20   5.97170870074414E-18
      5.52196039701910E-16  -5.00000000000000E-01  -5.00000000000000E-01   0.00000000000000E+00   0.00000000000000E+00
      0.00000000000000E+00   0.00000000000000E+00   0.00000000000000E+00  -3.94076143200504E-16
      1.94306497152037E-02
      0.00000000000000E+00   0.00000000000000E+00   0.00000000000000E+00   0.00000000000000E+00   7.37050046916461E-19
     -4.92487261997035E-21   7.32125174296491E-19   3.85202601705317E-16   1.94306497152037E-02   1.94306497152037E-02
      0.00000000000000E+00   0.00000000000000E+00   6.86000303166778E-18   1.28602610497043E-20   6.87286329271748E-18
      5.53418141039340E-16  -5.00000000000000E-01  -5.00000000000000E-01   0.00000000000000E+00   0.00000000000000E+00
      0.00000000000000E+00   0.00000000000000E+00   0.00000000000000E+00  -3.95255093235081E-16
      2.40443709953751E-02
      0.00000000000000E+00   0.00000000000000E+00   0.00000000000000E+00   0.00000000000000E+00  -6.20003250118755E-18
     -6.14617063891744E-21  -6.20617867182647E-18   3.85021697220097E-16   2.40443709953751E-02   2.40443709953751E-02
      0.00000000000000E+00   0.00000000000000E+00  -4.82385755759699E-18   1.49855933930519E-20  -4.80887196420394E-18
      5.54868122253814E-16  -5.00000000000000E-01  -5.00000000000000E-01   0.00000000000000E+00   0.00000000000000E+00
      0.00000000000000E+00   0.00000000000000E+00   0.00000000000000E+00  -3.96645769646726E-16
      2.95193202478451E-02
      0.00000000000000E+00   0.00000000000000E+00   0.00000000000000E+00   0.00000000000000E+00  -4.72969285176689E-19
     -7.63297394247379E-21  -4.80602259119163E-19   3.84809263605375E-16   2.95193202478451E-02   2.95193202478451E-02
      0.00000000000000E+00   0.00000000000000E+00   4.83139422698803E-18   1.71560024435049E-20   4.84855022943154E-18
      5.56587416593350E-16  -5.00000000000000E-01  -5.00000000000000E-01   0.00000000000000E+00   0.00000000000000E+00
      0.00000000000000E+00   0.00000000000000E+00   0.00000000000000E+00  -3.98287450587475E-16
      3.60162600274429E-02
      0.00000000000000E+00   0.00000000000000E+00   0.00000000000000E+00   0.00000000000000E+00   1.77858951250802E-19
     -9.46139576644426E-21   1.68397555484358E-19   3.84558942767425E-16   3.60162600274429E-02   3.60162600274429E-02
      0.00000000000000E+00   0.00000000000000E+00   8.19353501499707E-18   1.93076370360423E-20   8.21284265203312E-18
      5.58624152241785E-16  -5.00000000000000E-01  -5.00000000000000E-01   0.00000000000000E+00   0.00000000000000E+00
      0.00000000000000E+00   0.00000000000000E+00   0.00000000000000E+00  -4.00228582521619E-16
      4.37259618992322E-02
      0.00000000000000E+00   0.00000000000000E+00   0.00000000000000E+00   0.00000000000000E+00  -9.02350184528244E-18
     -1.17424174023334E-20  -9.03524426268477E-18   3.84262173037622E-16   4.37259618992322E-02   4.37259618992322E-02
      0.00000000000000E+00   0.00000000000000E+00   5.60817520524071E-18   2.13666465507025E-20   5.62954185179141E-18
      5.61033674741050E-16  -5.00000000000000E-01  -5.00000000000000E-01   0.00000000000000E+00   0.00000000000000E+00
      0.00000000000000E+00   0.00000000000000E+00   0.00000000000000E+00  -4.02530333858222E-16
      5.28748081204222E-02
      0.00000000000000E+00   0.00000000000000E+00   0.00000000000000E+00   0.00000000000000E+00  -1.65720440246841E-19
     -1.46458581897565E-20  -1.80366298436597E-19   3.83906923100442E-16   5.28748081204222E-02   5.28748081204222E-02
      0.00000000000000E+00   0.00000000000000E+00   2.49541822710812E-19   2.32565352198963E-20   2.72798357930708E-19
      5.63878760140832E-16  -5.00000000000000E-01  -5.00000000000000E-01   0.00000000000000E+00   0.00000000000000E+00
      0.00000000000000E+00   0.00000000000000E+00   0.00000000000000E+00  -4.05272088192972E-16
      6.36094543532852E-02
      0.00000000000000E+00   0.00000000000000E+00   0.00000000000000E+00   0.00000000000000E+00  -6.05697684326689E-18
     -1.83993352306812E-20  -6.07537617849757E-18   3.83480632968243E-16   6.36094543532852E-02   6.36094543532852E-02
      0.00000000000000E+00   0.00000000000000E+00   2.21863764332141E-18   2.48931699852038E-20   2.24353081330662E-18
      5.67191888578832E-16  -5.00000000000000E-01  -5.00000000000000E-01   0.00000000000000E+00   0.00000000000000E+00
      0.00000000000000E+00   0.00000000000000E+00   0.00000000000000E+00  -4.08522500507264E-16
      7.62047725998443E-02
      0.00000000000000E+00   0.00000000000000E+00   0.00000000000000E+00   0.00000000000000E+00  -1.11067897891886E-17
     -2.34203231840209E-20  -1.11302101123727E-17   3.82960103322877E-16   7.62047725998443E-02   7.62047725998443E-02
      0.00000000000000E+00   0.00000000000000E+00   5.95584867551891E-18   2.62396031992382E-20   5.98208827871815E-18
      5.71037535979021E-16  -5.00000000000000E-01  -5.00000000000000E-01   0.00000000000000E+00   0.00000000000000E+00
      0.00000000000000E+00   0.00000000000000E+00   0.00000000000000E+00  -4.12409254460461E-16
      9.09832793424738E-02
      0.00000000000000E+00   0.00000000000000E+00   0.00000000000000E+00   0.00000000000000E+00  -1.37237347721075E-17
     -3.04208306720708E-20  -1.37541556027795E-17   3.82312136623712E-16   9.09832793424738E-02   9.09832793424738E-02
      0.00000000000000E+00   0.00000000000000E+00   1.30990819538382E-17   2.72869692731623E-20   1.31263689231113E-17
      5.75484126440205E-16  -5.00000000000000E-01  -5.00000000000000E-01   0.00000000000000E+00   0.00000000000000E+00
      0.00000000000000E+00   0.00000000000000E+00   0.00000000000000E+00  -4.17103986450572E-16
      1.08323393920492E-01
      0.00000000000000E+00   0.00000000000000E+00   0.00000000000000E+00   0.00000000000000E+00  -5.66539411550912E-18
     -4.06400768451043E-20  -5.70603419235423E-18   3.81491956148040E-16   1.08323393920492E-01   1.08323393920492E-01
      0.00000000000000E+00   0.00000000000000E+00   1.48084909465972E-17   2.80559315825600E-20   1.48365468781797E-17
      5.80605203883839E-16  -5.00000000000000E-01  -5.00000000000000E-01   0.00000000000000E+00   0.00000000000000E+00
      0.00000000000000E+00   0.00000000000000E+00   0.00000000000000E+00  -4.22829348138429E-16
      1.28669128358701E-01
      0.00000000000000E+00   0.00000000000000E+00   0.00000000000000E+00   0.00000000000000E+00  -1.27207562685485E-17
     -5.62418064390025E-20  -1.27769980749875E-17   3.80446395487963E-16   1.28669128358701E-01   1.28669128358701E-01
      0.00000000000000E+00   0.00000000000000E+00   6.06388537687847E-18   2.85908224650164E-20   6.09247619934349E-18
      5.86485667312326E-16  -5.00000000000000E-01  -5.00000000000000E-01   0.00000000000000E+00   0.00000000000000E+00
      0.00000000000000E+00   0.00000000000000E+00   0.00000000000000E+00  -4.29848770072101E-16
      1.52541456766199E-01
      0.00000000000000E+00   0.00000000000000E+00   0.00000000000000E+00   0.00000000000000E+00  -2.87103568202464E-17
     -8.09211410202173E-20  -2.87912779612667E-17   3.79127357706392E-16   1.52541456766199E-01   1.52541456766199E-01
      0.00000000000000E+00   0.00000000000000E+00   1.69057543734172E-17   2.89482671127743E-20   1.69347026405299E-17
      5.93236961921532E-16  -5.00000000000000E-01  -5.00000000000000E-01   0.00000000000000E+00   0.00000000000000E+00
      0.00000000000000E+00   0.00000000000000E+00   0.00000000000000E+00  -4.38418602425348E-16
      1.80551655430996E-01
      0.00000000000000E+00   0.00000000000000E+00   0.00000000000000E+00   0.00000000000000E+00  -4.64664094523696E-17
     -1.20570988184164E-19  -4.65869804405538E-17   3.77519269679742E-16   1.80551655430996E-01   1.80551655430996E-01
      0.00000000000000E+00   0.00000000000000E+00   1.95772610734854E-17   2.91848236129479E-20   1.96064458970983E-17
      6.01021914699372E-16  -5.00000000000000E-01  -5.00000000000000E-01   0.00000000000000E+00   0.00000000000000E+00
      0.00000000000000E+00   0.00000000000000E+00   0.00000000000000E+00  -4.48688504744101E-16
      2.13416955197692E-01
      0.00000000000000E+00   0.00000000000000E+00   0.00000000000000E+00   0.00000000000000E+00  -3.11555419000104E-17
     -1.83153332676026E-19  -3.13386952326864E-17   3.75674133831759E-16   2.13416955197692E-01   2.13416955197692E-01
      0.00000000000000E+00   0.00000000000000E+00   3.09794409751332E-17   2.93481008075422E-20   3.10087890759407E-17
      6.10080927509575E-16  -5.00000000000000E-01  -5.00000000000000E-01   0.00000000000000E+00   0.00000000000000E+00
      0.00000000000000E+00   0.00000000000000E+00   0.00000000000000E+00  -4.60573064134575E-16
      2.51978906923948E-01
      0.00000000000000E+00   0.00000000000000E+00   0.00000000000000E+00   0.00000000000000E+00  -4.82117379213126E-17
     -2.76121618069669E-19  -4.84878595393823E-17   3.73722848025023E-16   2.51978906923948E-01   2.51978906923948E-01
      0.00000000000000E+00   0.00000000000000E+00   3.26018156813445E-17   2.94740289201077E-20   3.26312897102646E-17
      6.20735365423137E-16  -5.00000000000000E-01  -5.00000000000000E-01   0.00000000000000E+00   0.00000000000000E+00
      0.00000000000000E+00   0.00000000000000E+00   0.00000000000000E+00  -4.73710478029654E-16
      2.96710770926406E-01
      0.00000000000000E+00   0.00000000000000E+00   0.00000000000000E+00   0.00000000000000E+00  -4.34473330248390E-17
     -4.01844640760353E-19  -4.38491776655994E-17   3.71824256652084E-16   2.96710770926406E-01   2.96710770926406E-01
      0.00000000000000E+00   0.00000000000000E+00   4.60906492213384E-17   2.95865655162315E-20   4.61202357868546E-17
      6.33190683514881E-16  -5.00000000000000E-01  -5.00000000000000E-01   0.00000000000000E+00   0.00000000000000E+00
      0.00000000000000E+00   0.00000000000000E+00   0.00000000000000E+00  -4.87573922124727E-16
      3.48003308315890E-01
      0.00000000000000E+00   0.00000000000000E+00   0.00000000000000E+00   0.00000000000000E+00  -5.50560109357243E-17
     -5.63750572368754E-19  -5.56197615080931E-17   3.70014508222196E-16   3.48003308315890E-01   3.48003308315890E-01
      0.00000000000000E+00   0.00000000000000E+00   4.39862513808096E-17   2.96997897824256E-20   4.40159511705920E-17
      6.47533322554825E-16  -5.00000000000000E-01  -5.00000000000000E-01   0.00000000000000E+00   0.00000000000000E+00
      0.00000000000000E+00   0.00000000000000E+00   0.00000000000000E+00  -5.02073431956681E-16
      4.06818751189166E-01
      0.00000000000000E+00   0.00000000000000E+00   0.00000000000000E+00   0.00000000000000E+00  -8.01981717623988E-17
     -7.76190669525264E-19  -8.09743624319241E-17   3.68218122703336E-16   4.06818751189166E-01   4.06818751189166E-01
      0.00000000000000E+00   0.00000000000000E+00   6.67533919492523E-17   2.98212183637910E-20   6.67832131676161E-17
      6.63952258827369E-16  -5.00000000000000E-01  -5.00000000000000E-01   0.00000000000000E+00   0.00000000000000E+00
      0.00000000000000E+00   0.00000000000000E+00   0.00000000000000E+00  -5.17613653257935E-16
      4.74260459017188E-01
      0.00000000000000E+00   0.00000000000000E+00   0.00000000000000E+00   0.00000000000000E+00  -1.03030809981290E-16
     -1.04719528327893E-18  -1.04078005264569E-16   3.66439687344644E-16   4.74260459017188E-01   4.74260459017188E-01
      0.00000000000000E+00   0.00000000000000E+00   7.65595142624931E-17   2.99558457016079E-20   7.65894701081948E-17
      6.82728650428931E-16  -5.00000000000000E-01  -5.00000000000000E-01   0.00000000000000E+00   0.00000000000000E+00
      0.00000000000000E+00   0.00000000000000E+00   0.00000000000000E+00  -5.34315164470181E-16
      5.51593617326654E-01
      0.00000000000000E+00   0.00000000000000E+00   0.00000000000000E+00   0.00000000000000E+00  -1.21648447771773E-16
     -1.36944299324144E-18  -1.23017890765014E-16   3.64720398832792E-16   5.51593617326654E-01   5.51593617326654E-01
      0.00000000000000E+00   0.00000000000000E+00   1.01973018908174E-16   3.01051610618159E-20   1.02003124069236E-16
      7.04198838000342E-16  -5.00000000000000E-01  -5.00000000000000E-01   0.00000000000000E+00   0.00000000000000E+00
      0.00000000000000E+00   0.00000000000000E+00   0.00000000000000E+00  -5.52171564382395E-16
      6.40268972188175E-01
      0.00000000000000E+00   0.00000000000000E+00   0.00000000000000E+00   0.00000000000000E+00  -1.68878464346257E-16
     -1.84886462056019E-18  -1.70727328966817E-16   3.62720948128049E-16   6.40268972188175E-01   6.40268972188175E-01
      0.00000000000000E+00   0.00000000000000E+00   1.65076906143815E-16   3.02663485410273E-20   1.65107172492356E-16
      7.28523995627821E-16  -5.00000000000000E-01  -5.00000000000000E-01   0.00000000000000E+00   0.00000000000000E+00
      0.00000000000000E+00   0.00000000000000E+00   0.00000000000000E+00  -5.72594550371581E-16
      7.41950045762719E-01
      0.00000000000000E+00   0.00000000000000E+00   0.00000000000000E+00   0.00000000000000E+00  -2.48427754642310E-16
     -2.55405477039866E-18  -2.50981809412708E-16   3.60449893853041E-16   7.41950045762719E-01   7.41950045762719E-01
      0.00000000000000E+00   0.00000000000000E+00   2.53695015217669E-16   3.04412508821992E-20   2.53725456468552E-16
      7.56129771009829E-16  -5.00000000000000E-01  -5.00000000000000E-01   0.00000000000000E+00   0.00000000000000E+00
      0.00000000000000E+00   0.00000000000000E+00   0.00000000000000E+00  -5.95718048945646E-16
      8.58544343461530E-01
      0.00000000000000E+00   0.00000000000000E+00   0.00000000000000E+00   0.00000000000000E+00  -5.00418883793831E-16
     -3.20516889470152E-18  -5.03624052688532E-16   3.58450429093449E-16   8.58544343461530E-01   8.58544343461530E-01
      0.00000000000000E+00   0.00000000000000E+00   3.92284298387159E-16   3.06350860881515E-20   3.92314933473248E-16
      7.87760147099959E-16  -5.00000000000000E-01  -5.00000000000000E-01   0.00000000000000E+00   0.00000000000000E+00
      0.00000000000000E+00   0.00000000000000E+00   0.00000000000000E+00  -6.19702383825414E-16
      9.92239138156165E-01
      0.00000000000000E+00   0.00000000000000E+00   0.00000000000000E+00   0.00000000000000E+00  -7.51761854763374E-16
     -3.93216002885573E-18  -7.55694014792229E-16   3.56288658486614E-16   9.92239138156165E-01   9.92239138156165E-01
      0.00000000000000E+00   0.00000000000000E+00   7.61130046899623E-16   3.08456620473149E-20   7.61160892561670E-16
      8.23692543883450E-16  -5.00000000000000E-01  -5.00000000000000E-01   0.00000000000000E+00   0.00000000000000E+00
      0.00000000000000E+00   0.00000000000000E+00   0.00000000000000E+00  -6.46363422994061E-16
      1.00000000000000E+00
      0.00000000000000E+00   0.00000000000000E+00   0.00000000000000E+00   0.00000000000000E+00  -8.00466772600594E-16
     -3.97278224965367E-18  -8.04439554850247E-16   3.56166296403292E-16   1.00000000000000E+00   1.00000000000000E+00
      0.00000000000000E+00   0.00000000000000E+00   7.98182651714611E-16   3.08575482809482E-20   7.98213509262892E-16
      8.25767862221801E-16  -5.00000000000000E-01  -5.00000000000000E-01   0.00000000000000E+00   0.00000000000000E+00
      0.00000000000000E+00   0.00000000000000E+00   0.00000000000000E+00  -6.47888810187879E-16
      0.00000000000000E+00
      0.00000000000000E+00   0.00000000000000E+00   0.00000000000000E+00   0.00000000000000E+00  -7.83826541949541E-16
     -3.97276782747076E-18  -7.87799309777012E-16   3.56166314061824E-16   1.00000000000000E+00   1.00000000000000E+00
      0.00000000000000E+00   0.00000000000000E+00   7.91178510258012E-16   3.08575483889293E-20   7.91209367806401E-16
      8.25767870503393E-16  -5.00000000000000E-01  -5.00000000000000E-01   0.00000000000000E+00   0.00000000000000E+00
      0.00000000000000E+00   0.00000000000000E+00   0.00000000000000E+00  -6.47888744827637E-16
      1.00000000000000E-03
      0.00000000000000E+00   0.00000000000000E+00   0.00000000000000E+00   0.00000000000000E+00  -8.18331668670148E-16
     -3.92524334026064E-18  -8.22256912010409E-16   3.56126660997445E-16   1.00000000000000E+00   1.00000000000000E+00
      0.00000000000000E+00   0.00000000000000E+00   7.83198238270342E-16   3.08573730540467E-20   7.83229095643396E-16
      8.25449618791595E-16  -4.98000000000000E-01  -4.98000000000000E-01   0.00000000000000E+00   0.00000000000000E+00
      0.00000000000000E+00   0.00000000000000E+00   0.00000000000000E+00  -6.45838311241545E-16
      2.14666666666667E-03
      0.00000000000000E+00   0.00000000000000E+00   0.00000000000000E+00   0.00000000000000E+00  -7.83233457970843E-16
     -3.87024298455672E-18  -7.87103700955400E-16   3.56082090011204E-16   1.00000000000000E+00   1.00000000000000E+00
      0.00000000000000E+00   0.00000000000000E+00   7.88349142348555E-16   3.08571761252455E-20   7.88379999524681E-16
      8.25084532729757E-16  -4.95706666666667E-01  -4.95706666666667E-01   0.00000000000000E+00   0.00000000000000E+00
      0.00000000000000E+00   0.00000000000000E+00   0.00000000000000E+00  -6.43487543785146E-16
      3.50737777777778E-03
      0.00000000000000E+00   0.00000000000000E+00   0.00000000000000E+00   0.00000000000000E+00  -7.83388812508469E-16
     -3.80421408050719E-18  -7.87193026588976E-16   3.56030580529158E-16   1.00000000000000E+00   1.00000000000000E+00
      0.00000000000000E+00   0.00000000000000E+00   7.81968900036920E-16   3.08569488795057E-20   7.81999756985800E-16
      8.24651122143925E-16  -4.92985244444444E-01  -4.92985244444444E-01   0.00000000000000E+00   0.00000000000000E+00
      0.00000000000000E+00   0.00000000000000E+00   0.00000000000000E+00  -6.40698161144941E-16
      5.12208829629630E-03
      0.00000000000000E+00   0.00000000000000E+00   0.00000000000000E+00   0.00000000000000E+00  -7.82201854261669E-16
     -3.72486499577361E-18  -7.85926719257442E-16   3.55971409548510E-16   1.00000000000000E+00   1.00000000000000E+00
      0.00000000000000E+00   0.00000000000000E+00   7.80557960926879E-16   3.08566881625466E-20   7.80588817615042E-16
      8.24136531058115E-16  -4.89755823407407E-01  -4.89755823407407E-01   0.00000000000000E+00   0.00000000000000E+00
      0.00000000000000E+00   0.00000000000000E+00   0.00000000000000E+00  -6.37388591007131E-16
      7.03821144493827E-03
      0.00000000000000E+00   0.00000000000000E+00   0.00000000000000E+00   0.00000000000000E+00  -7.87606347000515E-16
     -3.62939007145431E-18  -7.91235737071969E-16   3.55904017114249E-16   1.00000000000000E+00   1.00000000000000E+00
      0.00000000000000E+00   0.00000000000000E+00   7.87653402691333E-16   3.08563915328732E-20   7.87684259082866E-16
      8.23525469843476E-16  -4.85923577110123E-01  -4.85923577110123E-01   0.00000000000000E+00   0.00000000000000E+00
      0.00000000000000E+00   0.00000000000000E+00   0.00000000000000E+00  -6.33462095827416E-16
      9.31201091466008E-03
      0.00000000000000E+00   0.00000000000000E+00   0.00000000000000E+00   0.00000000000000E+00  -7.91346722280965E-16
     -3.51442809067504E-18  -7.94861150371640E-16   3.55828098829105E-16   1.00000000000000E+00   1.00000000000000E+00
      0.00000000000000E+00   0.00000000000000E+00   7.95481159521746E-16   3.08560574923409E-20   7.95512015579238E-16
      8.22799706021612E-16  -4.81375978170680E-01  -4.81375978170680E-01   0.00000000000000E+00   0.00000000000000E+00
      0.00000000000000E+00   0.00000000000000E+00   0.00000000000000E+00  -6.28804307552251E-16
      1.20102529520633E-02
      0.00000000000000E+00   0.00000000000000E+00   0.00000000000000E+00   0.00000000000000E+00  -7.78498757191732E-16
     -3.37595728588793E-18  -7.81874714477620E-16   3.55743880521316E-16   1.00000000000000E+00   1.00000000000000E+00
      0.00000000000000E+00   0.00000000000000E+00   7.96190300394739E-16   3.08556866130785E-20   7.96221156081352E-16
      8.21937495533818E-16  -4.75979494095873E-01  -4.75979494095873E-01   0.00000000000000E+00   0.00000000000000E+00
      0.00000000000000E+00   0.00000000000000E+00   0.00000000000000E+00  -6.23280023201530E-16
      1.52121668364484E-02
      0.00000000000000E+00   0.00000000000000E+00   0.00000000000000E+00   0.00000000000000E+00  -7.84843818363256E-16
     -3.20936171357278E-18  -7.88053180076829E-16   3.55652342360444E-16   1.00000000000000E+00   1.00000000000000E+00
      0.00000000000000E+00   0.00000000000000E+00   7.90493137909125E-16   3.08552820360800E-20   7.90523993191161E-16
      8.20912803656361E-16  -4.69575666327103E-01  -4.69575666327103E-01   0.00000000000000E+00   0.00000000000000E+00
      0.00000000000000E+00   0.00000000000000E+00   0.00000000000000E+00  -6.16730281703575E-16
      1.90117713125855E-02
      0.00000000000000E+00   0.00000000000000E+00   0.00000000000000E+00   0.00000000000000E+00  -7.92673302483698E-16
     -3.00960426019057E-18  -7.95682906743888E-16   3.55555588162713E-16   1.00000000000000E+00   1.00000000000000E+00
      0.00000000000000E+00   0.00000000000000E+00   7.88280227572129E-16   3.08548504002181E-20   7.88311082422529E-16
      8.19694353121581E-16  -4.61976457374829E-01  -4.61976457374829E-01   0.00000000000000E+00   0.00000000000000E+00
      0.00000000000000E+00   0.00000000000000E+00   0.00000000000000E+00  -6.08969309574328E-16
      2.35206352909348E-02
      0.00000000000000E+00   0.00000000000000E+00   0.00000000000000E+00   0.00000000000000E+00  -7.77166748853413E-16
     -2.77186003418927E-18  -7.79938608887603E-16   3.55456986888348E-16   1.00000000000000E+00   1.00000000000000E+00
      0.00000000000000E+00   0.00000000000000E+00   7.69866730766282E-16   3.08544008320427E-20   7.69897585167114E-16
      8.18244279139575E-16  -4.52958729418130E-01  -4.52958729418130E-01   0.00000000000000E+00   0.00000000000000E+00
      0.00000000000000E+00   0.00000000000000E+00   0.00000000000000E+00  -5.99783185083677E-16
      2.88110356921979E-02
      0.00000000000000E+00   0.00000000000000E+00   0.00000000000000E+00   0.00000000000000E+00  -8.34883584886446E-16
     -2.49591434536029E-18  -8.37379499231806E-16   3.55361729443846E-16   1.00000000000000E+00   1.00000000000000E+00
      0.00000000000000E+00   0.00000000000000E+00   7.63843046301847E-16   3.08539449192847E-20   7.63873900246767E-16
      8.16535693946252E-16  -4.42377928615604E-01  -4.42377928615604E-01   0.00000000000000E+00   0.00000000000000E+00
      0.00000000000000E+00   0.00000000000000E+00   0.00000000000000E+00  -5.89053730451836E-16
      3.50184388296801E-02
      0.00000000000000E+00   0.00000000000000E+00   0.00000000000000E+00   0.00000000000000E+00  -7.75289604608766E-16
     -2.18342828264224E-18  -7.77473032891408E-16   3.55271365146786E-16   1.00000000000000E+00   1.00000000000000E+00
      0.00000000000000E+00   0.00000000000000E+00   7.47762759352610E-16   3.08534658308016E-20   7.47793612818440E-16
      8.14517900740202E-16  -4.29963122340640E-01  -4.29963122340640E-01   0.00000000000000E+00   0.00000000000000E+00
      0.00000000000000E+00   0.00000000000000E+00   0.00000000000000E+00  -5.76570074202180E-16
      4.22190264691593E-02
      0.00000000000000E+00   0.00000000000000E+00   0.00000000000000E+00   0.00000000000000E+00  -8.40765648384166E-16
     -1.84728906579460E-18  -8.42612937449961E-16   3.55178133495532E-16   1.00000000000000E+00   1.00000000000000E+00