DF-ISE text

Info {
  version   = 1.0
  type      = xyplot
  datasets  = [
    "time"
    "S OuterVoltage" "S InnerVoltage" "S QuasiFermiPotential" "S DisplacementCurrent" "S eCurrent"
    "S hCurrent" "S TotalCurrent" "S Charge" "D OuterVoltage" "D InnerVoltage"
    "D QuasiFermiPotential" "D DisplacementCurrent" "D eCurrent" "D hCurrent" "D TotalCurrent"
    "D Charge" "G OuterVoltage" "G InnerVoltage" "G QuasiFermiPotential" "G DisplacementCurrent"
    "G eCurrent" "G hCurrent" "G TotalCurrent" "G Charge" ]
  functions = [
    Time
    OuterVoltage InnerVoltage QuasiFermiPotential DisplacementCurrent eCurrent
    hCurrent TotalCurrent Charge OuterVoltage InnerVoltage
    QuasiFermiPotential DisplacementCurrent eCurrent hCurrent TotalCurrent
    Charge OuterVoltage InnerVoltage QuasiFermiPotential DisplacementCurrent
    eCurrent hCurrent TotalCurrent Charge ]
}

Data {
      0.00000000000000E+00
      0.00000000000000E+00   0.00000000000000E+00   0.00000000000000E+00   0.00000000000000E+00   1.07885753472981E-18
      4.16497157671983E-36   1.07885753472981E-18   4.04409753776314E-16   0.00000000000000E+00   0.00000000000000E+00
      0.00000000000000E+00   0.00000000000000E+00   2.38257189573305E-19   5.59492196248498E-36   2.38257189573305E-19
      6.05602806274767E-16  -5.00000000000000E-01  -5.00000000000000E-01   0.00000000000000E+00   0.00000000000000E+00
      0.00000000000000E+00   0.00000000000000E+00   0.00000000000000E+00  -4.95410287988478E-16
      0.00000000000000E+00
      0.00000000000000E+00   0.00000000000000E+00   0.00000000000000E+00   0.00000000000000E+00  -4.62098698101060E-18
      5.80359942479521E-34  -4.62098698101060E-18   4.04409756056628E-16   0.00000000000000E+00   0.00000000000000E+00
      0.00000000000000E+00   0.00000000000000E+00   3.08542019557567E-18   5.66312492489569E-34   3.08542019557567E-18
      6.05602808615968E-16  -5.00000000000000E-01  -5.00000000000000E-01   0.00000000000000E+00   0.00000000000000E+00
      0.00000000000000E+00   0.00000000000000E+00   0.00000000000000E+00  -4.95410287988473E-16
      1.00000000000000E-03
      0.00000000000000E+00   0.00000000000000E+00   0.00000000000000E+00   0.00000000000000E+00  -1.46121957659368E-05
     -5.93773835922309E-23  -1.46121957659368E-05   4.04299558592496E-16   1.00000000000000E-03   1.00000000000000E-03
      0.00000000000000E+00   0.00000000000000E+00   1.46121957659523E-05   1.79001293936201E-22   1.46121957659523E-05
      6.05898852170060E-16  -5.00000000000000E-01  -5.00000000000000E-01   0.00000000000000E+00   0.00000000000000E+00
      0.00000000000000E+00   0.00000000000000E+00   0.00000000000000E+00  -4.95659401858791E-16
      2.17333333333333E-03
      0.00000000000000E+00   0.00000000000000E+00   0.00000000000000E+00   0.00000000000000E+00  -3.12219176380178E-05
     -1.27625135136088E-22  -3.12219176380178E-05   4.04168973764327E-16   2.17333333333333E-03   2.17333333333333E-03
      0.00000000000000E+00   0.00000000000000E+00   3.12219176380248E-05   3.84964579608611E-22   3.12219176380248E-05
      6.06248288794492E-16  -5.00000000000000E-01  -5.00000000000000E-01   0.00000000000000E+00   0.00000000000000E+00
      0.00000000000000E+00   0.00000000000000E+00   0.00000000000000E+00  -4.95950736059683E-16
      3.56568888888889E-03
      0.00000000000000E+00   0.00000000000000E+00   0.00000000000000E+00   0.00000000000000E+00  -5.01260274634243E-05
     -2.06786477019755E-22  -5.01260274634243E-05   4.04012100285159E-16   3.56568888888889E-03   3.56568888888889E-03
      0.00000000000000E+00   0.00000000000000E+00   5.01260274634265E-05   6.23440150344999E-22   5.01260274634265E-05
      6.06666064360222E-16  -5.00000000000000E-01  -5.00000000000000E-01   0.00000000000000E+00   0.00000000000000E+00
      0.00000000000000E+00   0.00000000000000E+00   0.00000000000000E+00  -4.96295245816808E-16
      5.21795081481481E-03
      0.00000000000000E+00   0.00000000000000E+00   0.00000000000000E+00   0.00000000000000E+00  -7.13905310599692E-05
     -2.97593407282025E-22  -7.13905310599692E-05   4.03823327161566E-16   5.21795081481481E-03   5.21795081481481E-03
      0.00000000000000E+00   0.00000000000000E+00   7.13905310599855E-05   8.98428437170874E-22   7.13905310599855E-05
      6.07166391163077E-16  -5.00000000000000E-01  -5.00000000000000E-01   0.00000000000000E+00   0.00000000000000E+00
      0.00000000000000E+00   0.00000000000000E+00   0.00000000000000E+00  -4.96701981666899E-16
      7.17863496691358E-03
      0.00000000000000E+00   0.00000000000000E+00   0.00000000000000E+00   0.00000000000000E+00  -9.49697740010332E-05
     -4.01644441627297E-22  -9.49697740010332E-05   4.03595831365308E-16   7.17863496691358E-03   7.17863496691358E-03
      0.00000000000000E+00   0.00000000000000E+00   9.49697740010497E-05   1.21274084633467E-21   9.49697740010497E-05
      6.07766625954059E-16  -5.00000000000000E-01  -5.00000000000000E-01   0.00000000000000E+00   0.00000000000000E+00
      0.00000000000000E+00   0.00000000000000E+00   0.00000000000000E+00  -4.97182194736845E-16
      9.50531349407078E-03
      0.00000000000000E+00   0.00000000000000E+00   0.00000000000000E+00   0.00000000000000E+00  -1.20657294431136E-04
     -5.19344432043362E-22  -1.20657294431136E-04   4.03321601229204E-16   9.50531349407078E-03   9.50531349407078E-03
      0.00000000000000E+00   0.00000000000000E+00   1.20657294431116E-04   1.56910086762838E-21   1.20657294431116E-04
      6.08488175858344E-16  -5.00000000000000E-01  -5.00000000000000E-01   0.00000000000000E+00   0.00000000000000E+00
      0.00000000000000E+00   0.00000000000000E+00   0.00000000000000E+00  -4.97748192223291E-16
      1.21732382052110E-02
      0.00000000000000E+00   0.00000000000000E+00   0.00000000000000E+00   0.00000000000000E+00  -1.47170972198035E-04
     -6.46259253070521E-22  -1.47170972198035E-04   4.03002653921981E-16   1.21732382052110E-02   1.21732382052110E-02
      0.00000000000000E+00   0.00000000000000E+00   1.47170972198079E-04   1.95561087943740E-21   1.47170972198079E-04
      6.09327926606205E-16  -5.00000000000000E-01  -5.00000000000000E-01   0.00000000000000E+00   0.00000000000000E+00
      0.00000000000000E+00   0.00000000000000E+00   0.00000000000000E+00  -4.98391775344417E-16
      1.53391755290975E-02
      0.00000000000000E+00   0.00000000000000E+00   0.00000000000000E+00   0.00000000000000E+00  -1.74840158776119E-04
     -7.86622626751933E-22  -1.74840158776119E-04   4.02620088215495E-16   1.53391755290975E-02   1.53391755290975E-02
      0.00000000000000E+00   0.00000000000000E+00   1.74840158776121E-04   2.38313980691642E-21   1.74840158776121E-04
      6.10341364946392E-16  -5.00000000000000E-01  -5.00000000000000E-01   0.00000000000000E+00   0.00000000000000E+00
      0.00000000000000E+00   0.00000000000000E+00   0.00000000000000E+00  -4.99148503609922E-16
      1.89694503271539E-02
      0.00000000000000E+00   0.00000000000000E+00   0.00000000000000E+00   0.00000000000000E+00  -2.02036450466889E-04
     -9.34040745554476E-22  -2.02036450466889E-04   4.02179582749483E-16   1.89694503271539E-02   1.89694503271539E-02
      0.00000000000000E+00   0.00000000000000E+00   2.02036450466898E-04   2.83251837397903E-21   2.02036450466898E-04
      6.11525776210683E-16  -5.00000000000000E-01  -5.00000000000000E-01   0.00000000000000E+00   0.00000000000000E+00
      0.00000000000000E+00   0.00000000000000E+00   0.00000000000000E+00  -5.00006840038426E-16
      2.32289727568735E-02
      0.00000000000000E+00   0.00000000000000E+00   0.00000000000000E+00   0.00000000000000E+00  -2.28716944068703E-04
     -1.08918791796029E-21  -2.28716944068703E-04   4.01665854485165E-16   2.32289727568735E-02   2.32289727568735E-02
      0.00000000000000E+00   0.00000000000000E+00   2.28716944068678E-04   3.30596965240725E-21   2.28716944068678E-04
      6.12945678519455E-16  -5.00000000000000E-01  -5.00000000000000E-01   0.00000000000000E+00   0.00000000000000E+00
      0.00000000000000E+00   0.00000000000000E+00   0.00000000000000E+00  -5.01001398122757E-16
      2.81700187753482E-02
      0.00000000000000E+00   0.00000000000000E+00   0.00000000000000E+00   0.00000000000000E+00  -2.54078824207002E-04
     -1.24738508861187E-21  -2.54078824207002E-04   4.01081881843134E-16   2.81700187753482E-02   2.81700187753482E-02
      0.00000000000000E+00   0.00000000000000E+00   2.54078824207007E-04   3.78607169652350E-21   2.54078824207007E-04
      6.14633933858309E-16  -5.00000000000000E-01  -5.00000000000000E-01   0.00000000000000E+00   0.00000000000000E+00
      0.00000000000000E+00   0.00000000000000E+00   0.00000000000000E+00  -5.02139418957163E-16
      3.39016321567788E-02
      0.00000000000000E+00   0.00000000000000E+00   0.00000000000000E+00   0.00000000000000E+00  -2.78098712009232E-04
     -1.40551585574068E-21  -2.78098712009232E-04   4.00429643307642E-16   3.39016321567788E-02   3.39016321567788E-02
      0.00000000000000E+00   0.00000000000000E+00   2.78098712009231E-04   4.25774982987686E-21   2.78098712009231E-04
      6.16649517356694E-16  -5.00000000000000E-01  -5.00000000000000E-01   0.00000000000000E+00   0.00000000000000E+00
      0.00000000000000E+00   0.00000000000000E+00   0.00000000000000E+00  -5.03440773777328E-16
      4.06267251909908E-02
      0.00000000000000E+00   0.00000000000000E+00   0.00000000000000E+00   0.00000000000000E+00  -3.01599226776396E-04
     -1.56015484417368E-21  -3.01599226776396E-04   3.99706598256056E-16   4.06267251909908E-02   4.06267251909908E-02
      0.00000000000000E+00   0.00000000000000E+00   3.01599226776409E-04   4.70918918832360E-21   3.01599226776409E-04
      6.19096222186414E-16  -5.00000000000000E-01  -5.00000000000000E-01   0.00000000000000E+00   0.00000000000000E+00
      0.00000000000000E+00   0.00000000000000E+00   0.00000000000000E+00  -5.04944439929333E-16
      4.85175010177995E-02
      0.00000000000000E+00   0.00000000000000E+00   0.00000000000000E+00   0.00000000000000E+00  -3.25676639790531E-04
     -1.70822631745149E-21  -3.25676639790531E-04   3.98915632573071E-16   4.85175010177995E-02   4.85175010177995E-02
      0.00000000000000E+00   0.00000000000000E+00   3.25676639790517E-04   5.12133081196133E-21   3.25676639790517E-04
      6.22079740675417E-16  -5.00000000000000E-01  -5.00000000000000E-01   0.00000000000000E+00   0.00000000000000E+00
      0.00000000000000E+00   0.00000000000000E+00   0.00000000000000E+00  -5.06682953190717E-16
      5.77760113212550E-02
      0.00000000000000E+00   0.00000000000000E+00   0.00000000000000E+00   0.00000000000000E+00  -3.51799735382764E-04
     -1.84864631281783E-21  -3.51799735382764E-04   3.98049901282948E-16   5.77760113212550E-02   5.77760113212550E-02
      0.00000000000000E+00   0.00000000000000E+00   3.51799735382786E-04   5.47707519319020E-21   3.51799735382786E-04
      6.25725791950035E-16  -5.00000000000000E-01  -5.00000000000000E-01   0.00000000000000E+00   0.00000000000000E+00
      0.00000000000000E+00   0.00000000000000E+00   0.00000000000000E+00  -5.08696215190928E-16
      6.85158832732635E-02
      0.00000000000000E+00   0.00000000000000E+00   0.00000000000000E+00   0.00000000000000E+00  -3.81471186598820E-04
     -1.97658784507927E-21  -3.81471186598820E-04   3.97100625579209E-16   6.85158832732635E-02   6.85158832732635E-02
      0.00000000000000E+00   0.00000000000000E+00   3.81471186598824E-04   5.76196333318824E-21   3.81471186598824E-04
      6.30139758210122E-16  -5.00000000000000E-01  -5.00000000000000E-01   0.00000000000000E+00   0.00000000000000E+00
      0.00000000000000E+00   0.00000000000000E+00   0.00000000000000E+00  -5.11003098911733E-16
      7.93989535179653E-02
      0.00000000000000E+00   0.00000000000000E+00   0.00000000000000E+00   0.00000000000000E+00  -4.11998082295806E-04
     -2.08304166620076E-21  -4.11998082295806E-04   3.96173464210339E-16   7.93989535179653E-02   7.93989535179653E-02
      0.00000000000000E+00   0.00000000000000E+00   4.11998082295800E-04   5.95138310913956E-21   4.11998082295800E-04
      6.34807983728219E-16  -5.00000000000000E-01  -5.00000000000000E-01   0.00000000000000E+00   0.00000000000000E+00
      0.00000000000000E+00   0.00000000000000E+00   0.00000000000000E+00  -5.13319367713285E-16
      9.21684226050822E-02
      0.00000000000000E+00   0.00000000000000E+00   0.00000000000000E+00   0.00000000000000E+00  -4.47897012653922E-04
     -2.18691993837151E-21  -4.47897012653922E-04   3.95113958739437E-16   9.21684226050822E-02   9.21684226050822E-02
      0.00000000000000E+00   0.00000000000000E+00   4.47897012653929E-04   6.08742488778559E-21   4.47897012653929E-04
      6.40502040456266E-16  -5.00000000000000E-01  -5.00000000000000E-01   0.00000000000000E+00   0.00000000000000E+00
      0.00000000000000E+00   0.00000000000000E+00   0.00000000000000E+00  -5.16015517721386E-16
      1.06981006746138E-01
      0.00000000000000E+00   0.00000000000000E+00   0.00000000000000E+00   0.00000000000000E+00  -4.88341763902081E-04
     -2.29186315850681E-21  -4.88341763902081E-04   3.93919732990167E-16   1.06981006746138E-01   1.06981006746138E-01
      0.00000000000000E+00   0.00000000000000E+00   4.88341763902088E-04   6.17425355498748E-21   4.88341763902088E-04
      6.47326850408357E-16  -5.00000000000000E-01  -5.00000000000000E-01   0.00000000000000E+00   0.00000000000000E+00
      0.00000000000000E+00   0.00000000000000E+00   0.00000000000000E+00  -5.19121864028118E-16
      1.24361105471643E-01
      0.00000000000000E+00   0.00000000000000E+00   0.00000000000000E+00   0.00000000000000E+00  -5.34070899179265E-04
     -2.40867328881325E-21  -5.34070899179265E-04   3.92565759871678E-16   1.24361105471643E-01   1.24361105471643E-01
      0.00000000000000E+00   0.00000000000000E+00   5.34070899179263E-04   6.23100457761671E-21   5.34070899179263E-04
      6.55566091259400E-16  -5.00000000000000E-01  -5.00000000000000E-01   0.00000000000000E+00   0.00000000000000E+00
      0.00000000000000E+00   0.00000000000000E+00   0.00000000000000E+00  -5.22746010019548E-16
      1.43595081394535E-01
      0.00000000000000E+00   0.00000000000000E+00   0.00000000000000E+00   0.00000000000000E+00  -5.83420292645631E-04
     -2.54661885360347E-21  -5.83420292645631E-04   3.91122297171402E-16   1.43595081394535E-01   1.43595081394535E-01
      0.00000000000000E+00   0.00000000000000E+00   5.83420292645638E-04   6.28210912680154E-21   5.83420292645638E-04
      6.64932143953194E-16  -5.00000000000000E-01  -5.00000000000000E-01   0.00000000000000E+00   0.00000000000000E+00
      0.00000000000000E+00   0.00000000000000E+00   0.00000000000000E+00  -5.26738767323085E-16
      1.66162946477396E-01
      0.00000000000000E+00   0.00000000000000E+00   0.00000000000000E+00   0.00000000000000E+00  -6.40765508463644E-04
     -2.73498434544998E-21  -6.40765508463644E-04   3.89491308858525E-16   1.66162946477396E-01   1.66162946477396E-01
      0.00000000000000E+00   0.00000000000000E+00   6.40765508463643E-04   6.34706708329393E-21   6.40765508463643E-04
      6.76222626287228E-16  -5.00000000000000E-01  -5.00000000000000E-01   0.00000000000000E+00   0.00000000000000E+00
      0.00000000000000E+00   0.00000000000000E+00   0.00000000000000E+00  -5.31403962273636E-16
      1.91739860237971E-01
      0.00000000000000E+00   0.00000000000000E+00   0.00000000000000E+00   0.00000000000000E+00  -7.05854589406222E-04
     -2.99645630363786E-21  -7.05854589406222E-04   3.87708019380550E-16   1.91739860237971E-01   1.91739860237971E-01
      0.00000000000000E+00   0.00000000000000E+00   7.05854589406213E-04   6.42142263319756E-21   7.05854589406213E-04
      6.89393902730625E-16  -5.00000000000000E-01  -5.00000000000000E-01   0.00000000000000E+00   0.00000000000000E+00
      0.00000000000000E+00   0.00000000000000E+00   0.00000000000000E+00  -5.36665777461815E-16
      2.21750105717046E-01
      0.00000000000000E+00   0.00000000000000E+00   0.00000000000000E+00   0.00000000000000E+00  -7.82603188319502E-04
     -3.39769309376261E-21  -7.82603188319502E-04   3.85683298428823E-16   2.21750105717046E-01   2.21750105717046E-01
      0.00000000000000E+00   0.00000000000000E+00   7.82603188319508E-04   6.51494863414421E-21   7.82603188319508E-04
      7.05383251943118E-16  -5.00000000000000E-01  -5.00000000000000E-01   0.00000000000000E+00   0.00000000000000E+00
      0.00000000000000E+00   0.00000000000000E+00   0.00000000000000E+00  -5.42809127974641E-16
      2.56561990472773E-01
      0.00000000000000E+00   0.00000000000000E+00   0.00000000000000E+00   0.00000000000000E+00  -8.71542047874319E-04
     -4.04620385188140E-21  -8.71542047874319E-04   3.83408305064579E-16   2.56561990472773E-01   2.56561990472773E-01
      0.00000000000000E+00   0.00000000000000E+00   8.71542047874321E-04   6.63617893906275E-21   8.71542047874321E-04
      7.24767230412322E-16  -5.00000000000000E-01  -5.00000000000000E-01   0.00000000000000E+00   0.00000000000000E+00
      0.00000000000000E+00   0.00000000000000E+00   0.00000000000000E+00  -5.49899878298310E-16
      2.96943776789416E-01
      0.00000000000000E+00   0.00000000000000E+00   0.00000000000000E+00   0.00000000000000E+00  -9.73793284332977E-04
     -5.15395269917250E-21  -9.73793284332977E-04   3.80860393695722E-16   2.96943776789416E-01   2.96943776789416E-01
      0.00000000000000E+00   0.00000000000000E+00   9.73793284332980E-04   6.77609709564929E-21   9.73793284332980E-04
      7.48186587620317E-16  -5.00000000000000E-01  -5.00000000000000E-01   0.00000000000000E+00   0.00000000000000E+00
      0.00000000000000E+00   0.00000000000000E+00   0.00000000000000E+00  -5.58088731371788E-16
      3.43786648916722E-01
      0.00000000000000E+00   0.00000000000000E+00   0.00000000000000E+00   0.00000000000000E+00  -1.09173538088125E-03
     -7.15769795261270E-21  -1.09173538088125E-03   3.78021056383124E-16   3.43786648916722E-01   3.43786648916722E-01
      0.00000000000000E+00   0.00000000000000E+00   1.09173538088123E-03   6.93426741953088E-21   1.09173538088123E-03
      7.76060484830445E-16  -5.00000000000000E-01  -5.00000000000000E-01   0.00000000000000E+00   0.00000000000000E+00
      0.00000000000000E+00   0.00000000000000E+00   0.00000000000000E+00  -5.67569883862224E-16
      3.98124380584397E-01
      0.00000000000000E+00   0.00000000000000E+00   0.00000000000000E+00   0.00000000000000E+00  -1.22884845976095E-03
     -1.09418463820593E-20  -1.22884845976095E-03   3.74867919231748E-16   3.98124380584397E-01   3.98124380584397E-01
      0.00000000000000E+00   0.00000000000000E+00   1.22884845976098E-03   7.11684107226441E-21   1.22884845976098E-03
      8.09044230324734E-16  -5.00000000000000E-01  -5.00000000000000E-01   0.00000000000000E+00   0.00000000000000E+00
      0.00000000000000E+00   0.00000000000000E+00   0.00000000000000E+00  -5.78589409782453E-16
      4.60431646229997E-01
      0.00000000000000E+00   0.00000000000000E+00   0.00000000000000E+00   0.00000000000000E+00  -1.38725852333910E-03
     -1.79212358017779E-20  -1.38725852333910E-03   3.71412985226915E-16   4.60431646229997E-01   4.60431646229997E-01
      0.00000000000000E+00   0.00000000000000E+00   1.38725852333911E-03   7.32852656119841E-21   1.38725852333911E-03
      8.47578371481859E-16  -5.00000000000000E-01  -5.00000000000000E-01   0.00000000000000E+00   0.00000000000000E+00
      0.00000000000000E+00   0.00000000000000E+00   0.00000000000000E+00  -5.91239863385674E-16
      5.31046547295011E-01
      0.00000000000000E+00   0.00000000000000E+00   0.00000000000000E+00   0.00000000000000E+00  -1.56824892905719E-03
     -2.82219038153167E-20  -1.56824892905719E-03   3.67705254207079E-16   5.31046547295011E-01   5.31046547295011E-01
      0.00000000000000E+00   0.00000000000000E+00   1.56824892905720E-03   7.57304280736647E-21   1.56824892905720E-03
      8.92169340619082E-16  -5.00000000000000E-01  -5.00000000000000E-01   0.00000000000000E+00   0.00000000000000E+00
      0.00000000000000E+00   0.00000000000000E+00   0.00000000000000E+00  -6.05158083639282E-16
      6.12018300516227E-01
      0.00000000000000E+00   0.00000000000000E+00   0.00000000000000E+00   0.00000000000000E+00  -1.77673534600469E-03
     -3.80832606884469E-20  -1.77673534600469E-03   3.63734518013268E-16   6.12018300516227E-01   6.12018300516227E-01
      0.00000000000000E+00   0.00000000000000E+00   1.77673534600469E-03   7.85914275491605E-21   1.77673534600469E-03
      9.44577629083338E-16  -5.00000000000000E-01  -5.00000000000000E-01   0.00000000000000E+00   0.00000000000000E+00
      0.00000000000000E+00   0.00000000000000E+00   0.00000000000000E+00  -6.19902620655834E-16
      7.04865910876555E-01
      0.00000000000000E+00   0.00000000000000E+00   0.00000000000000E+00   0.00000000000000E+00  -2.01578628453530E-03
     -4.60313325065179E-20  -2.01578628453530E-03   3.59447776474692E-16   7.04865910876555E-01   7.04865910876555E-01
      0.00000000000000E+00   0.00000000000000E+00   2.01578628453530E-03   8.19263816977695E-21   2.01578628453530E-03
      1.00639915270040E-15  -5.00000000000000E-01  -5.00000000000000E-01   0.00000000000000E+00   0.00000000000000E+00
      0.00000000000000E+00   0.00000000000000E+00   0.00000000000000E+00  -6.35762558143878E-16
      8.10093202618260E-01
      0.00000000000000E+00   0.00000000000000E+00   0.00000000000000E+00   0.00000000000000E+00  -2.28573693425663E-03
     -6.60397577990680E-20  -2.28573693425663E-03   3.54703272263010E-16   8.10093202618260E-01   8.10093202618260E-01
      0.00000000000000E+00   0.00000000000000E+00   2.28573693425663E-03   8.57454907633783E-21   2.28573693425663E-03
      1.07879412255292E-15  -5.00000000000000E-01  -5.00000000000000E-01   0.00000000000000E+00   0.00000000000000E+00
      0.00000000000000E+00   0.00000000000000E+00   0.00000000000000E+00  -6.54470881964934E-16
      9.27947769368970E-01
      0.00000000000000E+00   0.00000000000000E+00   0.00000000000000E+00   0.00000000000000E+00  -2.58680348765210E-03
     -1.79536107623816E-19  -2.58680348765210E-03   3.49188976938945E-16   9.27947769368970E-01   9.27947769368970E-01
      0.00000000000000E+00   0.00000000000000E+00   2.58680348765207E-03   9.01066422271833E-21   2.58680348765207E-03
      1.16342487483261E-15  -5.00000000000000E-01  -5.00000000000000E-01   0.00000000000000E+00   0.00000000000000E+00
      0.00000000000000E+00   0.00000000000000E+00   0.00000000000000E+00  -6.79899367834544E-16
      1.00000000000000E+00
      0.00000000000000E+00   0.00000000000000E+00   0.00000000000000E+00   0.00000000000000E+00  -2.77014678440598E-03
     -4.33543033042668E-19  -2.77014678440598E-03   3.45617638831941E-16   1.00000000000000E+00   1.00000000000000E+00
      0.00000000000000E+00   0.00000000000000E+00   2.77014678440598E-03   9.28175075952425E-21   2.77014678440598E-03
      1.21765214436984E-15  -5.00000000000000E-01  -5.00000000000000E-01   0.00000000000000E+00   0.00000000000000E+00
      0.00000000000000E+00   0.00000000000000E+00   0.00000000000000E+00  -6.98622481064040E-16
      0.00000000000000E+00
      0.00000000000000E+00   0.00000000000000E+00   0.00000000000000E+00   0.00000000000000E+00  -2.77014677888424E-03
     -4.33542446786772E-19  -2.77014677888424E-03   3.45617639980632E-16   1.00000000000000E+00   1.00000000000000E+00
      0.00000000000000E+00   0.00000000000000E+00   2.77014677888426E-03   9.28175075177870E-21   2.77014677888426E-03
      1.21765214492144E-15  -5.00000000000000E-01  -5.00000000000000E-01   0.00000000000000E+00   0.00000000000000E+00
      0.00000000000000E+00   0.00000000000000E+00   0.00000000000000E+00  -6.98622468246294E-16
      1.00000000000000E-03
      0.00000000000000E+00   0.00000000000000E+00   0.00000000000000E+00   0.00000000000000E+00  -2.77039489949362E-03
     -4.23180516967150E-19  -2.77039489949362E-03   3.45425715206287E-16   1.00000000000000E+00   1.00000000000000E+00
      0.00000000000000E+00   0.00000000000000E+00   2.77039489949359E-03   9.28205672742452E-21   2.77039489949359E-03
      1.21738456932903E-15  -4.98000000000000E-01  -4.98000000000000E-01   0.00000000000000E+00   0.00000000000000E+00
      0.00000000000000E+00   0.00000000000000E+00   0.00000000000000E+00  -6.97097935738764E-16
      2.17333333333333E-03
      0.00000000000000E+00   0.00000000000000E+00   0.00000000000000E+00   0.00000000000000E+00  -2.77069199862745E-03
     -4.11233707011060E-19  -2.77069199862745E-03   3.45199121969701E-16   1.00000000000000E+00   1.00000000000000E+00
      0.00000000000000E+00   0.00000000000000E+00   2.77069199862744E-03   9.28242396935091E-21   2.77069199862744E-03
      1.21706994089900E-15  -4.95653333333333E-01  -4.95653333333333E-01   0.00000000000000E+00   0.00000000000000E+00
      0.00000000000000E+00   0.00000000000000E+00   0.00000000000000E+00  -6.95322984876382E-16
      3.56568888888889E-03
      0.00000000000000E+00   0.00000000000000E+00   0.00000000000000E+00   0.00000000000000E+00  -2.77105315670827E-03
     -3.97346582077993E-19  -2.77105315670827E-03   3.44928245288246E-16   1.00000000000000E+00   1.00000000000000E+00
      0.00000000000000E+00   0.00000000000000E+00   2.77105315670826E-03   9.28287162034322E-21   2.77105315670826E-03
      1.21669561782052E-15  -4.92868622222222E-01  -4.92868622222222E-01   0.00000000000000E+00   0.00000000000000E+00
      0.00000000000000E+00   0.00000000000000E+00   0.00000000000000E+00  -6.93236629123472E-16
      5.19938607407407E-03
      0.00000000000000E+00   0.00000000000000E+00   0.00000000000000E+00   0.00000000000000E+00  -2.77148921966756E-03
     -3.81443473308008E-19  -2.77148921966756E-03   3.44607627894976E-16   1.00000000000000E+00   1.00000000000000E+00
      0.00000000000000E+00   0.00000000000000E+00   2.77148921966758E-03   9.28341383135732E-21   2.77148921966758E-03
      1.21625504145474E-15  -4.89601227851852E-01  -4.89601227851852E-01   0.00000000000000E+00   0.00000000000000E+00
      0.00000000000000E+00   0.00000000000000E+00   0.00000000000000E+00  -6.90817124545129E-16
      7.13804006716049E-03
      0.00000000000000E+00   0.00000000000000E+00   0.00000000000000E+00   0.00000000000000E+00  -2.77202460295461E-03
     -3.63101906779013E-19  -2.77202460295461E-03   3.44223184563221E-16   1.00000000000000E+00   1.00000000000000E+00
      0.00000000000000E+00   0.00000000000000E+00   2.77202460295462E-03   9.28408197537030E-21   2.77202460295462E-03
      1.21573024199457E-15  -4.85723919865679E-01  -4.85723919865679E-01   0.00000000000000E+00   0.00000000000000E+00
      0.00000000000000E+00   0.00000000000000E+00   0.00000000000000E+00  -6.87987448353957E-16
      9.41272741904856E-03
      0.00000000000000E+00   0.00000000000000E+00   0.00000000000000E+00   0.00000000000000E+00  -2.77267831432841E-03
     -3.42241131187345E-19  -2.77267831432841E-03   3.43766563631725E-16   1.00000000000000E+00   1.00000000000000E+00
      0.00000000000000E+00   0.00000000000000E+00   2.77267831432843E-03   9.28490114339855E-21   2.77267831432843E-03
      1.21511167226182E-15  -4.81174545161903E-01  -4.81174545161903E-01   0.00000000000000E+00   0.00000000000000E+00
      0.00000000000000E+00   0.00000000000000E+00   0.00000000000000E+00  -6.84726316164412E-16
      1.20816939119306E-02
      0.00000000000000E+00   0.00000000000000E+00   0.00000000000000E+00   0.00000000000000E+00  -2.77348271549334E-03
     -3.18650174038257E-19  -2.77348271549334E-03   3.43222888242428E-16   1.00000000000000E+00   1.00000000000000E+00
      0.00000000000000E+00   0.00000000000000E+00   2.77348271549333E-03   9.28591388575314E-21   2.77348271549333E-03
      1.21438182093090E-15  -4.75836612176139E-01  -4.75836612176139E-01   0.00000000000000E+00   0.00000000000000E+00
      0.00000000000000E+00   0.00000000000000E+00   0.00000000000000E+00  -6.80986240357512E-16
      1.52132812635788E-02
      0.00000000000000E+00   0.00000000000000E+00   0.00000000000000E+00   0.00000000000000E+00  -2.77448089585399E-03
     -2.92065361816638E-19  -2.77448089585399E-03   3.42573775462190E-16   1.00000000000000E+00   1.00000000000000E+00
      0.00000000000000E+00   0.00000000000000E+00   2.77448089585399E-03   9.28717719637372E-21   2.77448089585399E-03
      1.21351962460043E-15  -4.69573437472842E-01  -4.69573437472842E-01   0.00000000000000E+00   0.00000000000000E+00
      0.00000000000000E+00   0.00000000000000E+00   0.00000000000000E+00  -6.76723159968331E-16
      1.88876770895127E-02
      0.00000000000000E+00   0.00000000000000E+00   0.00000000000000E+00   0.00000000000000E+00  -2.77573291250888E-03
     -2.62296275085934E-19  -2.77573291250888E-03   3.41795923582263E-16   1.00000000000000E+00   1.00000000000000E+00
      0.00000000000000E+00   0.00000000000000E+00   2.77573291250887E-03   9.28877111163999E-21   2.77573291250887E-03
      1.21249944759147E-15  -4.62224645820975E-01  -4.62224645820975E-01   0.00000000000000E+00   0.00000000000000E+00
      0.00000000000000E+00   0.00000000000000E+00   0.00000000000000E+00  -6.71906908892071E-16
      2.31989681919418E-02
      0.00000000000000E+00   0.00000000000000E+00   0.00000000000000E+00   0.00000000000000E+00  -2.77732326990839E-03
     -2.29256905435168E-19  -2.77732326990839E-03   3.40859455348544E-16   1.00000000000000E+00   1.00000000000000E+00
      0.00000000000000E+00   0.00000000000000E+00   2.77732326990842E-03   9.29080899918647E-21   2.77732326990842E-03
      1.21128992026656E-15  -4.53602063616116E-01  -4.53602063616116E-01   0.00000000000000E+00   0.00000000000000E+00
      0.00000000000000E+00   0.00000000000000E+00   0.00000000000000E+00  -6.66533525532794E-16
      2.82000658707595E-02
      0.00000000000000E+00   0.00000000000000E+00   0.00000000000000E+00   0.00000000000000E+00  -2.77934718195078E-03
     -1.93547581975891E-19  -2.77934718195078E-03   3.39738701923651E-16   1.00000000000000E+00   1.00000000000000E+00