DF-ISE text

Info {
  version   = 1.0
  type      = xyplot
  datasets  = [
    "time"
    "S OuterVoltage" "S InnerVoltage" "S QuasiFermiPotential" "S DisplacementCurrent" "S eCurrent"
    "S hCurrent" "S TotalCurrent" "S Charge" "D OuterVoltage" "D InnerVoltage"
    "D QuasiFermiPotential" "D DisplacementCurrent" "D eCurrent" "D hCurrent" "D TotalCurrent"
    "D Charge" "G OuterVoltage" "G InnerVoltage" "G QuasiFermiPotential" "G DisplacementCurrent"
    "G eCurrent" "G hCurrent" "G TotalCurrent" "G Charge" ]
  functions = [
    Time
    OuterVoltage InnerVoltage QuasiFermiPotential DisplacementCurrent eCurrent
    hCurrent TotalCurrent Charge OuterVoltage InnerVoltage
    QuasiFermiPotential DisplacementCurrent eCurrent hCurrent TotalCurrent
    Charge OuterVoltage InnerVoltage QuasiFermiPotential DisplacementCurrent
    eCurrent hCurrent TotalCurrent Charge ]
}

Data {
      0.00000000000000E+00
      0.00000000000000E+00   0.00000000000000E+00   0.00000000000000E+00   0.00000000000000E+00   1.11856706632397E-18
     -5.18374672492272E-35   1.11856706632397E-18   4.03435793102786E-16   0.00000000000000E+00   0.00000000000000E+00
      0.00000000000000E+00   0.00000000000000E+00   2.38257189573305E-19   1.04451567755910E-35   2.38257189573305E-19
      6.04383352364727E-16  -5.00000000000000E-01  -5.00000000000000E-01   0.00000000000000E+00   0.00000000000000E+00
      0.00000000000000E+00   0.00000000000000E+00   0.00000000000000E+00  -4.95621027685762E-16
      0.00000000000000E+00
      0.00000000000000E+00   0.00000000000000E+00   0.00000000000000E+00   0.00000000000000E+00  -1.50854813123763E-17
     -8.37930646609415E-31  -1.50854813123771E-17   4.03435796669675E-16   0.00000000000000E+00   0.00000000000000E+00
      0.00000000000000E+00   0.00000000000000E+00  -2.93682969025203E-18  -8.02594665794610E-31  -2.93682969025283E-18
      6.04383356078843E-16  -5.00000000000000E-01  -5.00000000000000E-01   0.00000000000000E+00   0.00000000000000E+00
      0.00000000000000E+00   0.00000000000000E+00   0.00000000000000E+00  -4.95621027682245E-16
      1.00000000000000E-03
      0.00000000000000E+00   0.00000000000000E+00   0.00000000000000E+00   0.00000000000000E+00  -1.59464116751352E-05
     -7.51609603934402E-23  -1.59464116751352E-05   4.03331189213355E-16   1.00000000000000E-03   1.00000000000000E-03
      0.00000000000000E+00   0.00000000000000E+00   1.59464116751400E-05   1.64581566973630E-22   1.59464116751400E-05
      6.04671996344352E-16  -5.00000000000000E-01  -5.00000000000000E-01   0.00000000000000E+00   0.00000000000000E+00
      0.00000000000000E+00   0.00000000000000E+00   0.00000000000000E+00  -4.95880251556187E-16
      2.17333333333333E-03
      0.00000000000000E+00   0.00000000000000E+00   0.00000000000000E+00   0.00000000000000E+00  -3.40466800127231E-05
     -1.61998455771877E-22  -3.40466800127231E-05   4.03206828863552E-16   2.17333333333333E-03   2.17333333333333E-03
      0.00000000000000E+00   0.00000000000000E+00   3.40466800127170E-05   3.54853894341994E-22   3.40466800127170E-05
      6.05013037770558E-16  -5.00000000000000E-01  -5.00000000000000E-01   0.00000000000000E+00   0.00000000000000E+00
      0.00000000000000E+00   0.00000000000000E+00   0.00000000000000E+00  -4.96183462554280E-16
      3.56568888888889E-03
      0.00000000000000E+00   0.00000000000000E+00   0.00000000000000E+00   0.00000000000000E+00  -5.46040594246161E-05
     -2.62695257377372E-22  -5.46040594246161E-05   4.03056874006573E-16   3.56568888888889E-03   3.56568888888889E-03
      0.00000000000000E+00   0.00000000000000E+00   5.46040594246166E-05   5.76879458923525E-22   5.46040594246166E-05
      6.05421335652118E-16  -5.00000000000000E-01  -5.00000000000000E-01   0.00000000000000E+00   0.00000000000000E+00
      0.00000000000000E+00   0.00000000000000E+00   0.00000000000000E+00  -4.96541657692661E-16
      5.21795081481481E-03
      0.00000000000000E+00   0.00000000000000E+00   0.00000000000000E+00   0.00000000000000E+00  -7.76588517885028E-05
     -3.80726343219896E-22  -7.76588517885028E-05   4.02875484339266E-16   5.21795081481481E-03   5.21795081481481E-03
      0.00000000000000E+00   0.00000000000000E+00   7.76588517884983E-05   8.33235472099182E-22   7.76588517884983E-05
      6.05911000239648E-16  -5.00000000000000E-01  -5.00000000000000E-01   0.00000000000000E+00   0.00000000000000E+00
      0.00000000000000E+00   0.00000000000000E+00   0.00000000000000E+00  -4.96965717258349E-16
      7.17863496691358E-03
      0.00000000000000E+00   0.00000000000000E+00   0.00000000000000E+00   0.00000000000000E+00  -1.03113899592132E-04
     -5.15671245548946E-22  -1.03113899592132E-04   4.02655812489471E-16   7.17863496691358E-03   7.17863496691358E-03
      0.00000000000000E+00   0.00000000000000E+00   1.03113899592149E-04   1.12958921997172E-21   1.03113899592149E-04
      6.06499640007128E-16  -5.00000000000000E-01  -5.00000000000000E-01   0.00000000000000E+00   0.00000000000000E+00
      0.00000000000000E+00   0.00000000000000E+00   0.00000000000000E+00  -4.97465417333016E-16
      9.47917103870946E-03
      0.00000000000000E+00   0.00000000000000E+00   0.00000000000000E+00   0.00000000000000E+00  -1.30382939243345E-04
     -6.68423502084878E-22  -1.30382939243345E-04   4.02392498866044E-16   9.47917103870946E-03   9.47917103870946E-03
      0.00000000000000E+00   0.00000000000000E+00   1.30382939243343E-04   1.46461927565902E-21   1.30382939243343E-04
      6.07200778830579E-16  -5.00000000000000E-01  -5.00000000000000E-01   0.00000000000000E+00   0.00000000000000E+00
      0.00000000000000E+00   0.00000000000000E+00   0.00000000000000E+00  -4.98047861189589E-16
      1.21477928819927E-02
      0.00000000000000E+00   0.00000000000000E+00   0.00000000000000E+00   0.00000000000000E+00  -1.58638300905179E-04
     -8.37227151438417E-22  -1.58638300905179E-04   4.02080915971879E-16   1.21477928819927E-02   1.21477928819927E-02
      0.00000000000000E+00   0.00000000000000E+00   1.58638300905182E-04   1.83594289021220E-21   1.58638300905182E-04
      6.08028231657223E-16  -5.00000000000000E-01  -5.00000000000000E-01   0.00000000000000E+00   0.00000000000000E+00
      0.00000000000000E+00   0.00000000000000E+00   0.00000000000000E+00  -4.98717630274956E-16
      1.49231595990072E-02
      0.00000000000000E+00   0.00000000000000E+00   0.00000000000000E+00   0.00000000000000E+00  -1.84437134799514E-04
     -1.00345877022550E-21  -1.84437134799514E-04   4.01751866292630E-16   1.49231595990072E-02   1.49231595990072E-02
      0.00000000000000E+00   0.00000000000000E+00   1.84437134799528E-04   2.20152437230005E-21   1.84437134799528E-04
      6.08904631856402E-16  -5.00000000000000E-01  -5.00000000000000E-01   0.00000000000000E+00   0.00000000000000E+00
      0.00000000000000E+00   0.00000000000000E+00   0.00000000000000E+00  -4.99407580654293E-16
      1.79575605429432E-02
      0.00000000000000E+00   0.00000000000000E+00   0.00000000000000E+00   0.00000000000000E+00  -2.08873665630756E-04
     -1.17420018744053E-21  -2.08873665630756E-04   4.01389050332231E-16   1.79575605429432E-02   1.79575605429432E-02
      0.00000000000000E+00   0.00000000000000E+00   2.08873665630747E-04   2.57676866828659E-21   2.08873665630747E-04
      6.09880960559474E-16  -5.00000000000000E-01  -5.00000000000000E-01   0.00000000000000E+00   0.00000000000000E+00
      0.00000000000000E+00   0.00000000000000E+00   0.00000000000000E+00  -5.00154035938910E-16
      2.14774656379088E-02
      0.00000000000000E+00   0.00000000000000E+00   0.00000000000000E+00   0.00000000000000E+00  -2.32954971010129E-04
     -1.35780594045118E-21  -2.32954971010129E-04   4.00968199121959E-16   2.14774656379088E-02   2.14774656379088E-02
      0.00000000000000E+00   0.00000000000000E+00   2.32954971010120E-04   2.97991695257136E-21   2.32954971010120E-04
      6.11036797411204E-16  -5.00000000000000E-01  -5.00000000000000E-01   0.00000000000000E+00   0.00000000000000E+00
      0.00000000000000E+00   0.00000000000000E+00   0.00000000000000E+00  -5.01009465327525E-16
      2.51850990046060E-02
      0.00000000000000E+00   0.00000000000000E+00   0.00000000000000E+00   0.00000000000000E+00  -2.54243915694476E-04
     -1.53448813236854E-21  -2.54243915694476E-04   4.00529652447792E-16   2.51850990046060E-02   2.51850990046060E-02
      0.00000000000000E+00   0.00000000000000E+00   2.54243915694459E-04   3.36772217983843E-21   2.54243915694459E-04
      6.12281108362629E-16  -5.00000000000000E-01  -5.00000000000000E-01   0.00000000000000E+00   0.00000000000000E+00
      0.00000000000000E+00   0.00000000000000E+00   0.00000000000000E+00  -5.01898353856246E-16
      2.71872210226224E-02
      0.00000000000000E+00   0.00000000000000E+00   0.00000000000000E+00   0.00000000000000E+00  -2.64324978178463E-04
     -1.62419338395366E-21  -2.64324978178463E-04   4.00296362048209E-16   2.71872210226224E-02   2.71872210226224E-02
      0.00000000000000E+00   0.00000000000000E+00   2.64324978178479E-04   3.56132148946207E-21   2.64324978178479E-04
      6.12964473327363E-16  -5.00000000000000E-01  -5.00000000000000E-01   0.00000000000000E+00   0.00000000000000E+00
      0.00000000000000E+00   0.00000000000000E+00   0.00000000000000E+00  -5.02374057388812E-16
      2.95363775237618E-02
      0.00000000000000E+00   0.00000000000000E+00   0.00000000000000E+00   0.00000000000000E+00  -2.75121193125705E-04
     -1.72238068194892E-21  -2.75121193125705E-04   4.00026901464415E-16   2.95363775237618E-02   2.95363775237618E-02
      0.00000000000000E+00   0.00000000000000E+00   2.75121193125695E-04   3.77556451246624E-21   2.75121193125695E-04
      6.13776761041292E-16  -5.00000000000000E-01  -5.00000000000000E-01   0.00000000000000E+00   0.00000000000000E+00
      0.00000000000000E+00   0.00000000000000E+00   0.00000000000000E+00  -5.02927147679161E-16
      3.21987548917197E-02
      0.00000000000000E+00   0.00000000000000E+00   0.00000000000000E+00   0.00000000000000E+00  -2.86245784655221E-04
     -1.82687980235551E-21  -2.86245784655221E-04   3.99727822421562E-16   3.21987548917197E-02   3.21987548917197E-02
      0.00000000000000E+00   0.00000000000000E+00   2.86245784655220E-04   4.00130966623209E-21   2.86245784655220E-04
      6.14711129536357E-16  -5.00000000000000E-01  -5.00000000000000E-01   0.00000000000000E+00   0.00000000000000E+00
      0.00000000000000E+00   0.00000000000000E+00   0.00000000000000E+00  -5.03548920684056E-16
      3.53226110034569E-02
      0.00000000000000E+00   0.00000000000000E+00   0.00000000000000E+00   0.00000000000000E+00  -2.98115795903303E-04
     -1.93953555684567E-21  -2.98115795903303E-04   3.99386431421163E-16   3.53226110034569E-02   3.53226110034569E-02
      0.00000000000000E+00   0.00000000000000E+00   2.98115795903298E-04   4.24449283278363E-21   2.98115795903298E-04
      6.15826486849287E-16  -5.00000000000000E-01  -5.00000000000000E-01   0.00000000000000E+00   0.00000000000000E+00
      0.00000000000000E+00   0.00000000000000E+00   0.00000000000000E+00  -5.04271185722352E-16
      3.89879355078953E-02
      0.00000000000000E+00   0.00000000000000E+00   0.00000000000000E+00   0.00000000000000E+00  -3.10836034169425E-04
     -2.06078853407325E-21  -3.10836034169425E-04   3.98999498905678E-16   3.89879355078953E-02   3.89879355078953E-02
      0.00000000000000E+00   0.00000000000000E+00   3.10836034169429E-04   4.50125151021699E-21   3.10836034169429E-04
      6.17161493267514E-16  -5.00000000000000E-01  -5.00000000000000E-01   0.00000000000000E+00   0.00000000000000E+00
      0.00000000000000E+00   0.00000000000000E+00   0.00000000000000E+00  -5.05110431355882E-16
      4.32397119330439E-02
      0.00000000000000E+00   0.00000000000000E+00   0.00000000000000E+00   0.00000000000000E+00  -3.24460188053807E-04
     -2.18666353399339E-21  -3.24460188053807E-04   3.98568723694586E-16   4.32397119330439E-02   4.32397119330439E-02
      0.00000000000000E+00   0.00000000000000E+00   3.24460188053810E-04   4.76382820866074E-21   3.24460188053810E-04
      6.18745291737299E-16  -5.00000000000000E-01  -5.00000000000000E-01   0.00000000000000E+00   0.00000000000000E+00
      0.00000000000000E+00   0.00000000000000E+00   0.00000000000000E+00  -5.06073066236936E-16
      4.81717725862161E-02
      0.00000000000000E+00   0.00000000000000E+00   0.00000000000000E+00   0.00000000000000E+00  -3.39286651412561E-04
     -2.31549706837264E-21  -3.39286651412561E-04   3.98090731460815E-16   4.81717725862161E-02   4.81717725862161E-02
      0.00000000000000E+00   0.00000000000000E+00   3.39286651412938E-04   5.02560047648320E-21   3.39286651412938E-04
      6.20627750797169E-16  -5.00000000000000E-01  -5.00000000000000E-01   0.00000000000000E+00   0.00000000000000E+00
      0.00000000000000E+00   0.00000000000000E+00   0.00000000000000E+00  -5.07177069454442E-16
      5.40244845613139E-02
      0.00000000000000E+00   0.00000000000000E+00   0.00000000000000E+00   0.00000000000000E+00  -3.56108431251416E-04
     -2.44616207311400E-21  -3.56108431251416E-04   3.97548196847606E-16   5.40244845613139E-02   5.40244845613139E-02
      0.00000000000000E+00   0.00000000000000E+00   3.56108431251413E-04   5.28431032055808E-21   3.56108431251413E-04
      6.22920677032024E-16  -5.00000000000000E-01  -5.00000000000000E-01   0.00000000000000E+00   0.00000000000000E+00
      0.00000000000000E+00   0.00000000000000E+00   0.00000000000000E+00  -5.08471119332958E-16
      5.99552326960797E-02
      0.00000000000000E+00   0.00000000000000E+00   0.00000000000000E+00   0.00000000000000E+00  -3.72804174308750E-04
     -2.55832855233656E-21  -3.72804174308750E-04   3.97019069307990E-16   5.99552326960797E-02   5.99552326960797E-02
      0.00000000000000E+00   0.00000000000000E+00   3.72804174308750E-04   5.49744918364829E-21   3.72804174308750E-04
      6.25306230943476E-16  -5.00000000000000E-01  -5.00000000000000E-01   0.00000000000000E+00   0.00000000000000E+00
      0.00000000000000E+00   0.00000000000000E+00   0.00000000000000E+00  -5.09767776226957E-16
      6.68349005324080E-02
      0.00000000000000E+00   0.00000000000000E+00   0.00000000000000E+00   0.00000000000000E+00  -3.92223431346749E-04
     -2.67056697116735E-21  -3.92223431346749E-04   3.96423582691117E-16   6.68349005324080E-02   6.68349005324080E-02
      0.00000000000000E+00   0.00000000000000E+00   3.92223431346737E-04   5.69348346260923E-21   3.92223431346737E-04
      6.28150500628237E-16  -5.00000000000000E-01  -5.00000000000000E-01   0.00000000000000E+00   0.00000000000000E+00
      0.00000000000000E+00   0.00000000000000E+00   0.00000000000000E+00  -5.11258333718892E-16
      7.49070441270332E-02
      0.00000000000000E+00   0.00000000000000E+00   0.00000000000000E+00   0.00000000000000E+00  -4.15415011689529E-04
     -2.77635153910815E-21  -4.15415011689529E-04   3.95741879141724E-16   7.49070441270332E-02   7.49070441270332E-02
      0.00000000000000E+00   0.00000000000000E+00   4.15415011689547E-04   5.86784263819144E-21   4.15415011689547E-04
      6.31592668100214E-16  -5.00000000000000E-01  -5.00000000000000E-01   0.00000000000000E+00   0.00000000000000E+00
      0.00000000000000E+00   0.00000000000000E+00   0.00000000000000E+00  -5.12988397679875E-16
      7.95888874119158E-02
      0.00000000000000E+00   0.00000000000000E+00   0.00000000000000E+00   0.00000000000000E+00  -4.29006179087946E-04
     -2.82960110565372E-21  -4.29006179087946E-04   3.95352353334461E-16   7.95888874119158E-02   7.95888874119158E-02
      0.00000000000000E+00   0.00000000000000E+00   4.29006179087951E-04   5.94645814511725E-21   4.29006179087951E-04
      6.33637599268773E-16  -5.00000000000000E-01  -5.00000000000000E-01   0.00000000000000E+00   0.00000000000000E+00
      0.00000000000000E+00   0.00000000000000E+00   0.00000000000000E+00  -5.13985348189754E-16
      8.49574010452478E-02
      0.00000000000000E+00   0.00000000000000E+00   0.00000000000000E+00   0.00000000000000E+00  -4.44559058221000E-04
     -2.88425373065347E-21  -4.44559058221000E-04   3.94910208967644E-16   8.49574010452478E-02   8.49574010452478E-02
      0.00000000000000E+00   0.00000000000000E+00   4.44559058221026E-04   6.01982176371723E-21   4.44559058221026E-04
      6.36020820445575E-16  -5.00000000000000E-01  -5.00000000000000E-01   0.00000000000000E+00   0.00000000000000E+00
      0.00000000000000E+00   0.00000000000000E+00   0.00000000000000E+00  -5.15123278850648E-16
      9.13280372234686E-02
      0.00000000000000E+00   0.00000000000000E+00   0.00000000000000E+00   0.00000000000000E+00  -4.62795542796866E-04
     -2.93958830748816E-21  -4.62795542796866E-04   3.94391824710816E-16   9.13280372234686E-02   9.13280372234686E-02
      0.00000000000000E+00   0.00000000000000E+00   4.62795542796861E-04   6.08755346480335E-21   4.62795542796861E-04
      6.38894743300402E-16  -5.00000000000000E-01  -5.00000000000000E-01   0.00000000000000E+00   0.00000000000000E+00
      0.00000000000000E+00   0.00000000000000E+00   0.00000000000000E+00  -5.16466126217910E-16
      9.88029170059142E-02
      0.00000000000000E+00   0.00000000000000E+00   0.00000000000000E+00   0.00000000000000E+00  -4.83751915924219E-04
     -2.99905319631706E-21  -4.83751915924219E-04   3.93792366909989E-16   9.88029170059142E-02   9.88029170059142E-02
      0.00000000000000E+00   0.00000000000000E+00   4.83751915924236E-04   6.14601889354209E-21   4.83751915924236E-04
      6.42320482219867E-16  -5.00000000000000E-01  -5.00000000000000E-01   0.00000000000000E+00   0.00000000000000E+00
      0.00000000000000E+00   0.00000000000000E+00   0.00000000000000E+00  -5.18035666581207E-16
      1.07573442617317E-01
      0.00000000000000E+00   0.00000000000000E+00   0.00000000000000E+00   0.00000000000000E+00  -5.07726013970352E-04
     -3.05944308985865E-21  -5.07726013970352E-04   3.93101671881696E-16   1.07573442617317E-01   1.07573442617317E-01
      0.00000000000000E+00   0.00000000000000E+00   5.07726013970335E-04   6.19402512502169E-21   5.07726013970335E-04
      6.46403923371622E-16  -5.00000000000000E-01  -5.00000000000000E-01   0.00000000000000E+00   0.00000000000000E+00
      0.00000000000000E+00   0.00000000000000E+00   0.00000000000000E+00  -5.19867955920877E-16
      1.17747252326544E-01
      0.00000000000000E+00   0.00000000000000E+00   0.00000000000000E+00   0.00000000000000E+00  -5.34862122221242E-04
     -3.12348500034035E-21  -5.34862122221242E-04   3.92317314376355E-16   1.17747252326544E-01   1.17747252326544E-01
      0.00000000000000E+00   0.00000000000000E+00   5.34862122221238E-04   6.23226538136792E-21   5.34862122221238E-04
      6.51217385660094E-16  -5.00000000000000E-01  -5.00000000000000E-01   0.00000000000000E+00   0.00000000000000E+00
      0.00000000000000E+00   0.00000000000000E+00   0.00000000000000E+00  -5.21984411873674E-16
      1.29684522385371E-01
      0.00000000000000E+00   0.00000000000000E+00   0.00000000000000E+00   0.00000000000000E+00  -5.66074221674535E-04
     -3.19716891519803E-21  -5.66074221674535E-04   3.91418970948866E-16   1.29684522385371E-01   1.29684522385371E-01
      0.00000000000000E+00   0.00000000000000E+00   5.66074221674540E-04   6.26606148019334E-21   5.66074221674540E-04
      6.56961066408335E-16  -5.00000000000000E-01  -5.00000000000000E-01   0.00000000000000E+00   0.00000000000000E+00
      0.00000000000000E+00   0.00000000000000E+00   0.00000000000000E+00  -5.24458821845733E-16
      1.43690919254395E-01
      0.00000000000000E+00   0.00000000000000E+00   0.00000000000000E+00   0.00000000000000E+00  -6.02223098955689E-04
     -3.28828140115834E-21  -6.02223098955689E-04   3.90392609475571E-16   1.43690919254395E-01   1.43690919254395E-01
      0.00000000000000E+00   0.00000000000000E+00   6.02223098955687E-04   6.30347028938464E-21   6.02223098955687E-04
      6.63823346786144E-16  -5.00000000000000E-01  -5.00000000000000E-01   0.00000000000000E+00   0.00000000000000E+00
      0.00000000000000E+00   0.00000000000000E+00   0.00000000000000E+00  -5.27352835293387E-16
      1.59751587664208E-01
      0.00000000000000E+00   0.00000000000000E+00   0.00000000000000E+00   0.00000000000000E+00  -6.43456659112334E-04
     -3.40412614498939E-21  -6.43456659112334E-04   3.89247859413743E-16   1.59751587664208E-01   1.59751587664208E-01
      0.00000000000000E+00   0.00000000000000E+00   6.43456659112342E-04   6.35004351640649E-21   6.43456659112342E-04
      6.71846479089932E-16  -5.00000000000000E-01  -5.00000000000000E-01   0.00000000000000E+00   0.00000000000000E+00
      0.00000000000000E+00   0.00000000000000E+00   0.00000000000000E+00  -5.30660343054576E-16
      1.78596105265056E-01
      0.00000000000000E+00   0.00000000000000E+00   0.00000000000000E+00   0.00000000000000E+00  -6.91896254073054E-04
     -3.55915860616785E-21  -6.91896254073054E-04   3.87941313025558E-16   1.78596105265056E-01   1.78596105265056E-01
      0.00000000000000E+00   0.00000000000000E+00   6.91896254073040E-04   6.40580488242303E-21   6.91896254073040E-04
      6.81463136617795E-16  -5.00000000000000E-01  -5.00000000000000E-01   0.00000000000000E+00   0.00000000000000E+00
      0.00000000000000E+00   0.00000000000000E+00   0.00000000000000E+00  -5.34525609016140E-16
      2.00707005916717E-01
      0.00000000000000E+00   0.00000000000000E+00   0.00000000000000E+00   0.00000000000000E+00  -7.48998509969984E-04
     -3.77732841653923E-21  -7.48998509969984E-04   3.86448828479452E-16   2.00707005916717E-01   2.00707005916717E-01
      0.00000000000000E+00   0.00000000000000E+00   7.48998509969982E-04   6.47175144707791E-21   7.48998509969982E-04
      6.93029330211134E-16  -5.00000000000000E-01  -5.00000000000000E-01   0.00000000000000E+00   0.00000000000000E+00
      0.00000000000000E+00   0.00000000000000E+00   0.00000000000000E+00  -5.39040467226772E-16
      2.26355650672645E-01
      0.00000000000000E+00   0.00000000000000E+00   0.00000000000000E+00   0.00000000000000E+00  -8.15454265389544E-04
     -4.09277781227495E-21  -8.15454265389544E-04   3.84761269997870E-16   2.26355650672645E-01   2.26355650672645E-01
      0.00000000000000E+00   0.00000000000000E+00   8.15454265389538E-04   6.55442066636163E-21   8.15454265389538E-04
      7.06869535219018E-16  -5.00000000000000E-01  -5.00000000000000E-01   0.00000000000000E+00   0.00000000000000E+00
      0.00000000000000E+00   0.00000000000000E+00   0.00000000000000E+00  -5.44250039009424E-16
      2.55766096659441E-01
      0.00000000000000E+00   0.00000000000000E+00   0.00000000000000E+00   0.00000000000000E+00  -8.91354263103828E-04
     -4.57322385947031E-21  -8.91354263103828E-04   3.82875121914057E-16   2.55766096659441E-01   2.55766096659441E-01
      0.00000000000000E+00   0.00000000000000E+00   8.91354263103823E-04   6.65833119930572E-21   8.91354263103823E-04
      7.23378572966735E-16  -5.00000000000000E-01  -5.00000000000000E-01   0.00000000000000E+00   0.00000000000000E+00
      0.00000000000000E+00   0.00000000000000E+00   0.00000000000000E+00  -5.50191618547909E-16
      2.85176542646238E-01
      0.00000000000000E+00   0.00000000000000E+00   0.00000000000000E+00   0.00000000000000E+00  -9.66522066583552E-04
     -5.21818418932737E-21  -9.66522066583552E-04   3.81039687663755E-16   2.85176542646238E-01   2.85176542646238E-01
      0.00000000000000E+00   0.00000000000000E+00   9.66522066583535E-04   6.76198568452194E-21   9.66522066583535E-04
      7.40433381337677E-16  -5.00000000000000E-01  -5.00000000000000E-01   0.00000000000000E+00   0.00000000000000E+00
      0.00000000000000E+00   0.00000000000000E+00   0.00000000000000E+00  -5.56100637581504E-16
      3.18116242151450E-01
      0.00000000000000E+00   0.00000000000000E+00   0.00000000000000E+00   0.00000000000000E+00  -1.05010875838548E-03
     -6.20537240905976E-21  -1.05010875838548E-03   3.79043892382079E-16   3.18116242151450E-01   3.18116242151450E-01
      0.00000000000000E+00   0.00000000000000E+00   1.05010875838547E-03   6.87520738093072E-21   1.05010875838547E-03
      7.59921348833291E-16  -5.00000000000000E-01  -5.00000000000000E-01   0.00000000000000E+00   0.00000000000000E+00
      0.00000000000000E+00   0.00000000000000E+00   0.00000000000000E+00  -5.62689273489873E-16
      3.55447901590690E-01
      0.00000000000000E+00   0.00000000000000E+00   0.00000000000000E+00   0.00000000000000E+00  -1.14464798808118E-03
     -7.78158554214224E-21  -1.14464798808118E-03   3.76855477841492E-16   3.55447901590690E-01   3.55447901590690E-01
      0.00000000000000E+00   0.00000000000000E+00   1.14464798808116E-03   7.00185451938551E-21   1.14464798808116E-03
      7.82360644145378E-16  -5.00000000000000E-01  -5.00000000000000E-01   0.00000000000000E+00   0.00000000000000E+00
      0.00000000000000E+00   0.00000000000000E+00   0.00000000000000E+00  -5.70132455165284E-16
      3.98752626540209E-01
      0.00000000000000E+00   0.00000000000000E+00   0.00000000000000E+00   0.00000000000000E+00  -1.25461830125774E-03
     -1.03739352302451E-20  -1.25461830125774E-03   3.74406994256982E-16   3.98752626540209E-01   3.98752626540209E-01
      0.00000000000000E+00   0.00000000000000E+00   1.25461830125772E-03   7.14866334411353E-21   1.25461830125772E-03
      8.08770960004984E-16  -5.00000000000000E-01  -5.00000000000000E-01   0.00000000000000E+00   0.00000000000000E+00
      0.00000000000000E+00   0.00000000000000E+00   0.00000000000000E+00  -5.78738099033152E-16
      4.48986107481651E-01
      0.00000000000000E+00   0.00000000000000E+00   0.00000000000000E+00   0.00000000000000E+00  -1.38294756699339E-03
     -1.45628716489172E-20  -1.38294756699339E-03   3.71675636431358E-16   4.48986107481651E-01   4.48986107481651E-01
      0.00000000000000E+00   0.00000000000000E+00   1.38294756699338E-03   7.32049252503649E-21   1.38294756699338E-03
      8.39864102312520E-16  -5.00000000000000E-01  -5.00000000000000E-01   0.00000000000000E+00   0.00000000000000E+00
      0.00000000000000E+00   0.00000000000000E+00   0.00000000000000E+00  -5.88657981656647E-16
      5.06587165627838E-01
      0.00000000000000E+00   0.00000000000000E+00   0.00000000000000E+00   0.00000000000000E+00  -1.53108013077601E-03
     -2.04370296717726E-20  -1.53108013077601E-03   3.68681607852606E-16   5.06587165627838E-01   5.06587165627838E-01
      0.00000000000000E+00   0.00000000000000E+00   1.53108013077601E-03   7.52046692020110E-21   1.53108013077601E-03
      8.76118807796037E-16  -5.00000000000000E-01  -5.00000000000000E-01   0.00000000000000E+00   0.00000000000000E+00
      0.00000000000000E+00   0.00000000000000E+00   0.00000000000000E+00  -5.99772783783761E-16
      5.73404393077415E-01
      0.00000000000000E+00   0.00000000000000E+00   0.00000000000000E+00   0.00000000000000E+00  -1.70372169179137E-03
     -2.66676419625069E-20  -1.70372169179137E-03   3.65391261987190E-16   5.73404393077415E-01   5.73404393077415E-01
      0.00000000000000E+00   0.00000000000000E+00   1.70372169179139E-03   7.75643228371158E-21   1.70372169179139E-03
      9.19014107891434E-16  -5.00000000000000E-01  -5.00000000000000E-01   0.00000000000000E+00   0.00000000000000E+00
      0.00000000000000E+00   0.00000000000000E+00   0.00000000000000E+00  -6.11996953269186E-16
      6.46457895088952E-01
      0.00000000000000E+00   0.00000000000000E+00   0.00000000000000E+00   0.00000000000000E+00  -1.89271310471021E-03
     -3.18336919260216E-20  -1.89271310471021E-03   3.61974372546656E-16   6.46457895088952E-01   6.46457895088952E-01
      0.00000000000000E+00   0.00000000000000E+00   1.89271310471020E-03   8.01854595778950E-21   1.89271310471020E-03
      9.66973532735919E-16  -5.00000000000000E-01  -5.00000000000000E-01   0.00000000000000E+00   0.00000000000000E+00
      0.00000000000000E+00   0.00000000000000E+00   0.00000000000000E+00  -6.24661382825729E-16
      7.26329723954899E-01
      0.00000000000000E+00   0.00000000000000E+00   0.00000000000000E+00   0.00000000000000E+00  -2.09889134086513E-03
     -3.86874998583281E-20  -2.09889134086513E-03   3.58360485054943E-16   7.26329723954899E-01   7.26329723954899E-01
      0.00000000000000E+00   0.00000000000000E+00   2.09889134086515E-03   8.30802788263033E-21   2.09889134086515E-03
      1.02069612742094E-15  -5.00000000000000E-01  -5.00000000000000E-01   0.00000000000000E+00   0.00000000000000E+00
      0.00000000000000E+00   0.00000000000000E+00   0.00000000000000E+00  -6.38383760755808E-16
      8.16851130002973E-01
      0.00000000000000E+00   0.00000000000000E+00   0.00000000000000E+00   0.00000000000000E+00  -2.33151864137871E-03
     -6.07052955485809E-20  -2.33151864137871E-03   3.54272336299134E-16   8.16851130002973E-01   8.16851130002973E-01
      0.00000000000000E+00   0.00000000000000E+00   2.33151864137873E-03   8.63902369608567E-21   2.33151864137873E-03
      1.08331652459586E-15  -5.00000000000000E-01  -5.00000000000000E-01   0.00000000000000E+00   0.00000000000000E+00
      0.00000000000000E+00   0.00000000000000E+00   0.00000000000000E+00  -6.55172260119957E-16
      9.19442056857456E-01
      0.00000000000000E+00   0.00000000000000E+00   0.00000000000000E+00   0.00000000000000E+00  -2.59390107125985E-03
     -1.62838783239909E-19  -2.59390107125985E-03   3.49443248790154E-16   9.19442056857456E-01   9.19442056857456E-01
      0.00000000000000E+00   0.00000000000000E+00   2.59390107125986E-03   9.02019229026490E-21   2.59390107125986E-03
      1.15703292458624E-15  -5.00000000000000E-01  -5.00000000000000E-01   0.00000000000000E+00   0.00000000000000E+00
      0.00000000000000E+00   0.00000000000000E+00   0.00000000000000E+00  -6.77945232068409E-16
      1.00000000000000E+00
      0.00000000000000E+00   0.00000000000000E+00   0.00000000000000E+00   0.00000000000000E+00  -2.79883535777516E-03
     -4.45954935432972E-19  -2.79883535777516E-03   3.45452116882370E-16   1.00000000000000E+00   1.00000000000000E+00