DF-ISE text

Info {
  version   = 1.0
  type      = xyplot
  datasets  = [
    "time"
    "S OuterVoltage" "S InnerVoltage" "S QuasiFermiPotential" "S DisplacementCurrent" "S eCurrent"
    "S hCurrent" "S TotalCurrent" "S Charge" "D OuterVoltage" "D InnerVoltage"
    "D QuasiFermiPotential" "D DisplacementCurrent" "D eCurrent" "D hCurrent" "D TotalCurrent"
    "D Charge" "G OuterVoltage" "G InnerVoltage" "G QuasiFermiPotential" "G DisplacementCurrent"
    "G eCurrent" "G hCurrent" "G TotalCurrent" "G Charge" ]
  functions = [
    Time
    OuterVoltage InnerVoltage QuasiFermiPotential DisplacementCurrent eCurrent
    hCurrent TotalCurrent Charge OuterVoltage InnerVoltage
    QuasiFermiPotential DisplacementCurrent eCurrent hCurrent TotalCurrent
    Charge OuterVoltage InnerVoltage QuasiFermiPotential DisplacementCurrent
    eCurrent hCurrent TotalCurrent Charge ]
}

Data {
      0.00000000000000E+00
      0.00000000000000E+00   0.00000000000000E+00   0.00000000000000E+00   0.00000000000000E+00   8.50073790616215E-19
     -1.40829817847105E-35   8.50073790616215E-19   1.66132607102871E-15   0.00000000000000E+00   0.00000000000000E+00
      0.00000000000000E+00   0.00000000000000E+00   3.79588963316749E-19   2.79645704255491E-36   3.79588963316749E-19
      1.84524826828981E-15  -5.00000000000000E-01  -5.00000000000000E-01   0.00000000000000E+00   0.00000000000000E+00
      0.00000000000000E+00   0.00000000000000E+00   0.00000000000000E+00  -3.91029105543135E-16
      0.00000000000000E+00
      0.00000000000000E+00   0.00000000000000E+00   0.00000000000000E+00   0.00000000000000E+00  -3.76547020842641E-18
     -5.94391573689250E-35  -3.76547020842641E-18   1.66132607102870E-15   0.00000000000000E+00   0.00000000000000E+00
      0.00000000000000E+00   0.00000000000000E+00  -5.90893734802588E-18  -5.91190893989127E-35  -5.90893734802588E-18
      1.84524826828978E-15  -5.00000000000000E-01  -5.00000000000000E-01   0.00000000000000E+00   0.00000000000000E+00
      0.00000000000000E+00   0.00000000000000E+00   0.00000000000000E+00  -3.91029105543135E-16
      1.00000000000000E-03
      0.00000000000000E+00   0.00000000000000E+00   0.00000000000000E+00   0.00000000000000E+00  -1.87707547085552E-08
     -1.42733031566664E-23  -1.87707547085552E-08   1.66123772521241E-15   1.00000000000000E-03   1.00000000000000E-03
      0.00000000000000E+00   0.00000000000000E+00   1.87707547108117E-08   2.21264629348450E-22   1.87707547108119E-08
      1.84619562472850E-15  -5.00000000000000E-01  -5.00000000000000E-01   0.00000000000000E+00   0.00000000000000E+00
      0.00000000000000E+00   0.00000000000000E+00   0.00000000000000E+00  -3.91186683701821E-16
      2.17333333333333E-03
      0.00000000000000E+00   0.00000000000000E+00   0.00000000000000E+00   0.00000000000000E+00  -4.03276011306591E-08
     -3.11898916030645E-23  -4.03276011306592E-08   1.66113372829241E-15   2.17333333333333E-03   2.17333333333333E-03
      0.00000000000000E+00   0.00000000000000E+00   4.03276011299909E-08   4.70551631237533E-22   4.03276011299913E-08
      1.84730628797293E-15  -5.00000000000000E-01  -5.00000000000000E-01   0.00000000000000E+00   0.00000000000000E+00
      0.00000000000000E+00   0.00000000000000E+00   0.00000000000000E+00  -3.91371950934290E-16
      3.56568888888889E-03
      0.00000000000000E+00   0.00000000000000E+00   0.00000000000000E+00   0.00000000000000E+00  -6.52326511970282E-08
     -5.15116053603729E-23  -6.52326511970283E-08   1.66100981761134E-15   3.56568888888889E-03   3.56568888888889E-03
      0.00000000000000E+00   0.00000000000000E+00   6.52326511780962E-08   7.52482508813764E-22   6.52326511780970E-08
      1.84862298580984E-15  -5.00000000000000E-01  -5.00000000000000E-01   0.00000000000000E+00   0.00000000000000E+00
      0.00000000000000E+00   0.00000000000000E+00   0.00000000000000E+00  -3.91592356238669E-16
      5.21795081481481E-03
      0.00000000000000E+00   0.00000000000000E+00   0.00000000000000E+00   0.00000000000000E+00  -9.38468244050347E-08
     -7.59925140180193E-23  -9.38468244050347E-08   1.66086202498015E-15   5.21795081481481E-03   5.21795081481481E-03
      0.00000000000000E+00   0.00000000000000E+00   9.38468244189352E-08   1.06843426363406E-21   9.38468244189362E-08
      1.85018360881966E-15  -5.00000000000000E-01  -5.00000000000000E-01   0.00000000000000E+00   0.00000000000000E+00
      0.00000000000000E+00   0.00000000000000E+00   0.00000000000000E+00  -3.91854733456071E-16
      7.17863496691358E-03
      0.00000000000000E+00   0.00000000000000E+00   0.00000000000000E+00   0.00000000000000E+00  -1.26526678470715E-07
     -1.05588039092695E-22  -1.26526678470715E-07   1.66068550768914E-15   7.17863496691358E-03   7.17863496691358E-03
      0.00000000000000E+00   0.00000000000000E+00   1.26526678464589E-07   1.41868900461823E-21   1.26526678464590E-07
      1.85203286003513E-15  -5.00000000000000E-01  -5.00000000000000E-01   0.00000000000000E+00   0.00000000000000E+00
      0.00000000000000E+00   0.00000000000000E+00   0.00000000000000E+00  -3.92167336711105E-16
      9.50531349407078E-03
      0.00000000000000E+00   0.00000000000000E+00   0.00000000000000E+00   0.00000000000000E+00  -1.63611400537685E-07
     -1.41525857141512E-22  -1.63611400537686E-07   1.66047430959039E-15   9.50531349407078E-03   9.50531349407078E-03
      0.00000000000000E+00   0.00000000000000E+00   1.63611400558727E-07   1.80198485930281E-21   1.63611400558728E-07
      1.85422340190724E-15  -5.00000000000000E-01  -5.00000000000000E-01   0.00000000000000E+00   0.00000000000000E+00
      0.00000000000000E+00   0.00000000000000E+00   0.00000000000000E+00  -3.92540186090358E-16
      1.22663053462973E-02
      0.00000000000000E+00   0.00000000000000E+00   0.00000000000000E+00   0.00000000000000E+00  -2.05413218916538E-07
     -1.85409726684842E-22  -2.05413218916538E-07   1.66022103276811E-15   1.22663053462973E-02   1.22663053462973E-02
      0.00000000000000E+00   0.00000000000000E+00   2.05413218920057E-07   2.21502791046508E-21   2.05413218920059E-07
      1.85681715491927E-15  -5.00000000000000E-01  -5.00000000000000E-01   0.00000000000000E+00   0.00000000000000E+00
      0.00000000000000E+00   0.00000000000000E+00   0.00000000000000E+00  -3.92985524651779E-16
      1.55426823442728E-02
      0.00000000000000E+00   0.00000000000000E+00   0.00000000000000E+00   0.00000000000000E+00  -2.52216951392290E-07
     -2.39374870254394E-22  -2.52216951392290E-07   1.65991637564045E-15   1.55426823442728E-02   1.55426823442728E-02
      0.00000000000000E+00   0.00000000000000E+00   2.52216951400164E-07   2.65202355955047E-21   2.52216951400166E-07
      1.85988674348004E-15  -5.00000000000000E-01  -5.00000000000000E-01   0.00000000000000E+00   0.00000000000000E+00
      0.00000000000000E+00   0.00000000000000E+00   0.00000000000000E+00  -3.93518435258855E-16
      1.94306497152037E-02
      0.00000000000000E+00   0.00000000000000E+00   0.00000000000000E+00   0.00000000000000E+00  -3.04298672777448E-07
     -3.06325080556105E-22  -3.04298672777448E-07   1.65954846874300E-15   1.94306497152037E-02   1.94306497152037E-02
      0.00000000000000E+00   0.00000000000000E+00   3.04298672764068E-07   3.10432422670631E-21   3.04298672764071E-07
      1.86351706718636E-15  -5.00000000000000E-01  -5.00000000000000E-01   0.00000000000000E+00   0.00000000000000E+00
      0.00000000000000E+00   0.00000000000000E+00   0.00000000000000E+00  -3.94157690435948E-16
      2.40443709953751E-02
      0.00000000000000E+00   0.00000000000000E+00   0.00000000000000E+00   0.00000000000000E+00  -3.61978927642385E-07
     -3.90301267643298E-22  -3.61978927642386E-07   1.65910190119097E-15   2.40443709953751E-02   2.40443709953751E-02
      0.00000000000000E+00   0.00000000000000E+00   3.61978927645230E-07   3.56032843582429E-21   3.61978927645233E-07
      1.86780694664201E-15  -5.00000000000000E-01  -5.00000000000000E-01   0.00000000000000E+00   0.00000000000000E+00
      0.00000000000000E+00   0.00000000000000E+00   0.00000000000000E+00  -3.94926945068932E-16
      2.95193202478451E-02
      0.00000000000000E+00   0.00000000000000E+00   0.00000000000000E+00   0.00000000000000E+00  -4.25733112924174E-07
     -4.97063301708478E-22  -4.25733112924174E-07   1.65855627412405E-15   2.95193202478451E-02   2.95193202478451E-02
      0.00000000000000E+00   0.00000000000000E+00   4.25733112918886E-07   4.00579541280598E-21   4.25733112918890E-07
      1.87287074950509E-15  -5.00000000000000E-01  -5.00000000000000E-01   0.00000000000000E+00   0.00000000000000E+00
      0.00000000000000E+00   0.00000000000000E+00   0.00000000000000E+00  -3.95856432791571E-16
      3.60162600274429E-02
      0.00000000000000E+00   0.00000000000000E+00   0.00000000000000E+00   0.00000000000000E+00  -4.96392695281460E-07
     -6.35018066538136E-22  -4.96392695281461E-07   1.65788404252697E-15   3.60162600274429E-02   3.60162600274429E-02
      0.00000000000000E+00   0.00000000000000E+00   4.96392695289018E-07   4.42472681802115E-21   4.96392695289023E-07
      1.87883984572982E-15  -5.00000000000000E-01  -5.00000000000000E-01   0.00000000000000E+00   0.00000000000000E+00
      0.00000000000000E+00   0.00000000000000E+00   0.00000000000000E+00  -3.96985387659861E-16
      4.36393360355042E-02
      0.00000000000000E+00   0.00000000000000E+00   0.00000000000000E+00   0.00000000000000E+00  -5.74618860943751E-07
     -8.14549270651353E-22  -5.74618860943752E-07   1.65705698870623E-15   4.36393360355042E-02   4.36393360355042E-02
      0.00000000000000E+00   0.00000000000000E+00   5.74618860938050E-07   4.79719422386082E-21   5.74618860938055E-07
      1.88578514393952E-15  -5.00000000000000E-01  -5.00000000000000E-01   0.00000000000000E+00   0.00000000000000E+00
      0.00000000000000E+00   0.00000000000000E+00   0.00000000000000E+00  -3.98349692167246E-16
      5.25837452182962E-02
      0.00000000000000E+00   0.00000000000000E+00   0.00000000000000E+00   0.00000000000000E+00  -6.62938083757260E-07
     -1.05288762446688E-21  -6.62938083757262E-07   1.65602808642179E-15   5.25837452182962E-02   5.25837452182962E-02
      0.00000000000000E+00   0.00000000000000E+00   6.62938083764156E-07   5.11117718732474E-21   6.62938083764161E-07
      1.89384955292746E-15  -5.00000000000000E-01  -5.00000000000000E-01   0.00000000000000E+00   0.00000000000000E+00
      0.00000000000000E+00   0.00000000000000E+00   0.00000000000000E+00  -4.00010139429735E-16
      6.30785186594389E-02
      0.00000000000000E+00   0.00000000000000E+00   0.00000000000000E+00   0.00000000000000E+00  -7.65600709430845E-07
     -1.37597129883565E-21  -7.65600709430847E-07   1.65473315536111E-15   6.30785186594389E-02   6.30785186594389E-02
      0.00000000000000E+00   0.00000000000000E+00   7.65600709421105E-07   5.35885989623755E-21   7.65600709421111E-07
      1.90319028509253E-15  -5.00000000000000E-01  -5.00000000000000E-01   0.00000000000000E+00   0.00000000000000E+00
      0.00000000000000E+00   0.00000000000000E+00   0.00000000000000E+00  -4.02046352376255E-16
      7.53923861637129E-02
      0.00000000000000E+00   0.00000000000000E+00   0.00000000000000E+00   0.00000000000000E+00  -8.89404936590272E-07
     -1.82286064278531E-21  -8.89404936590274E-07   1.65308684081008E-15   7.53923861637129E-02   7.53923861637129E-02
      0.00000000000000E+00   0.00000000000000E+00   8.89404936599233E-07   5.53780396654311E-21   8.89404936599239E-07
      1.91397996190767E-15  -5.00000000000000E-01  -5.00000000000000E-01   0.00000000000000E+00   0.00000000000000E+00
      0.00000000000000E+00   0.00000000000000E+00   0.00000000000000E+00  -4.04560729862671E-16
      8.98406573687277E-02
      0.00000000000000E+00   0.00000000000000E+00   0.00000000000000E+00   0.00000000000000E+00  -1.04464666296336E-06
     -2.45164843104319E-21  -1.04464666296336E-06   1.65098232424072E-15   8.98406573687277E-02   8.98406573687277E-02
      0.00000000000000E+00   0.00000000000000E+00   1.04464666296449E-06   5.65163874795516E-21   1.04464666296449E-06
      1.92641204692672E-15  -5.00000000000000E-01  -5.00000000000000E-01   0.00000000000000E+00   0.00000000000000E+00
      0.00000000000000E+00   0.00000000000000E+00   0.00000000000000E+00  -4.07679110232002E-16
      1.06793295582612E-01
      0.00000000000000E+00   0.00000000000000E+00   0.00000000000000E+00   0.00000000000000E+00  -1.24569998467304E-06
     -3.34593097051854E-21  -1.24569998467304E-06   1.64830116332617E-15   1.06793295582612E-01   1.06793295582612E-01
      0.00000000000000E+00   0.00000000000000E+00   1.24569998467666E-06   5.70961228690183E-21   1.24569998467667E-06
      1.94071663457904E-15  -5.00000000000000E-01  -5.00000000000000E-01   0.00000000000000E+00   0.00000000000000E+00
      0.00000000000000E+00   0.00000000000000E+00   0.00000000000000E+00  -4.11542514412726E-16
      1.26684391086902E-01
      0.00000000000000E+00   0.00000000000000E+00   0.00000000000000E+00   0.00000000000000E+00  -1.51159573156817E-06
     -4.61741380878518E-21  -1.51159573156817E-06   1.64494271915478E-15   1.26684391086902E-01   1.26684391086902E-01
      0.00000000000000E+00   0.00000000000000E+00   1.51159573156303E-06   5.72528803077729E-21   1.51159573156303E-06
      1.95719480605844E-15  -5.00000000000000E-01  -5.00000000000000E-01   0.00000000000000E+00   0.00000000000000E+00
      0.00000000000000E+00   0.00000000000000E+00   0.00000000000000E+00  -4.16280983217847E-16
      1.50023276478603E-01
      0.00000000000000E+00   0.00000000000000E+00   0.00000000000000E+00   0.00000000000000E+00  -1.86752091554334E-06
     -6.38962873289479E-21  -1.86752091554334E-06   1.64088555053050E-15   1.50023276478603E-01   1.50023276478603E-01
      0.00000000000000E+00   0.00000000000000E+00   1.86752091555720E-06   5.71513210368021E-21   1.86752091555720E-06
      1.97628112359804E-15  -5.00000000000000E-01  -5.00000000000000E-01   0.00000000000000E+00   0.00000000000000E+00
      0.00000000000000E+00   0.00000000000000E+00   0.00000000000000E+00  -4.21957492437258E-16
      1.77407568671533E-01
      0.00000000000000E+00   0.00000000000000E+00   0.00000000000000E+00   0.00000000000000E+00  -2.34645367904902E-06
     -8.72271180396865E-21  -2.34645367904903E-06   1.63629220157979E-15   1.77407568671533E-01   1.77407568671533E-01
      0.00000000000000E+00   0.00000000000000E+00   2.34645367904045E-06   5.69888047059340E-21   2.34645367904046E-06
      1.99864106656524E-15  -5.00000000000000E-01  -5.00000000000000E-01   0.00000000000000E+00   0.00000000000000E+00
      0.00000000000000E+00   0.00000000000000E+00   0.00000000000000E+00  -4.28471635038368E-16
      2.09538471511236E-01
      0.00000000000000E+00   0.00000000000000E+00   0.00000000000000E+00   0.00000000000000E+00  -2.98978688566815E-06
     -1.14261355076332E-20  -2.98978688566816E-06   1.63162683909941E-15   2.09538471511236E-01   2.09538471511236E-01
      0.00000000000000E+00   0.00000000000000E+00   2.98978688565961E-06   5.70135561987879E-21   2.98978688565962E-06
      2.02527106726335E-15  -5.00000000000000E-01  -5.00000000000000E-01   0.00000000000000E+00   0.00000000000000E+00
      0.00000000000000E+00   0.00000000000000E+00   0.00000000000000E+00  -4.35451904379157E-16
      2.47238730843155E-01
      0.00000000000000E+00   0.00000000000000E+00   0.00000000000000E+00   0.00000000000000E+00  -3.85011324547270E-06
     -1.38924799022571E-20  -3.85011324547272E-06   1.62758511313675E-15   2.47238730843155E-01   2.47238730843155E-01
      0.00000000000000E+00   0.00000000000000E+00   3.85011324547230E-06   5.72134390503980E-21   3.85011324547231E-06
      2.05742832226196E-15  -5.00000000000000E-01  -5.00000000000000E-01   0.00000000000000E+00   0.00000000000000E+00
      0.00000000000000E+00   0.00000000000000E+00   0.00000000000000E+00  -4.42322172262602E-16
      2.90971031668181E-01
      0.00000000000000E+00   0.00000000000000E+00   0.00000000000000E+00   0.00000000000000E+00  -4.98635832919234E-06
     -1.54664238335597E-20  -4.98635832919235E-06   1.62460298391789E-15   2.90971031668181E-01   2.90971031668181E-01
      0.00000000000000E+00   0.00000000000000E+00   4.98635832918865E-06   5.74023820153482E-21   4.98635832918866E-06
      2.09576266449005E-15  -5.00000000000000E-01  -5.00000000000000E-01   0.00000000000000E+00   0.00000000000000E+00
      0.00000000000000E+00   0.00000000000000E+00   0.00000000000000E+00  -4.48717036577867E-16
      3.41700500625211E-01
      0.00000000000000E+00   0.00000000000000E+00   0.00000000000000E+00   0.00000000000000E+00  -6.49365659839128E-06
     -1.61782294969502E-20  -6.49365659839130E-06   1.62236183370712E-15   3.41700500625211E-01   3.41700500625211E-01
      0.00000000000000E+00   0.00000000000000E+00   6.49365659839583E-06   5.75392082434937E-21   6.49365659839584E-06
      2.14078244442090E-15  -5.00000000000000E-01  -5.00000000000000E-01   0.00000000000000E+00   0.00000000000000E+00
      0.00000000000000E+00   0.00000000000000E+00   0.00000000000000E+00  -4.55008961709871E-16
      4.00546684615366E-01
      0.00000000000000E+00   0.00000000000000E+00   0.00000000000000E+00   0.00000000000000E+00  -8.50541505560130E-06
     -1.64579013188672E-20  -8.50541505560131E-06   1.62027850776268E-15   4.00546684615366E-01   4.00546684615366E-01
      0.00000000000000E+00   0.00000000000000E+00   8.50541505559303E-06   5.76301665916389E-21   8.50541505559304E-06
      2.19299421874276E-15  -5.00000000000000E-01  -5.00000000000000E-01   0.00000000000000E+00   0.00000000000000E+00
      0.00000000000000E+00   0.00000000000000E+00   0.00000000000000E+00  -4.61815333947736E-16
      4.68808258043945E-01
      0.00000000000000E+00   0.00000000000000E+00   0.00000000000000E+00   0.00000000000000E+00  -1.12013946869756E-05
     -1.66172325439831E-20  -1.12013946869756E-05   1.61792587415965E-15   4.68808258043945E-01   4.68808258043945E-01
      0.00000000000000E+00   0.00000000000000E+00   1.12013946869823E-05   5.76878913459119E-21   1.12013946869823E-05
      2.25324833591230E-15  -5.00000000000000E-01  -5.00000000000000E-01   0.00000000000000E+00   0.00000000000000E+00
      0.00000000000000E+00   0.00000000000000E+00   0.00000000000000E+00  -4.69594319662874E-16
      5.47991683221098E-01
      0.00000000000000E+00   0.00000000000000E+00   0.00000000000000E+00   0.00000000000000E+00  -1.48290161334308E-05
     -1.68336146809875E-20  -1.48290161334308E-05   1.61495223648597E-15   5.47991683221098E-01   5.47991683221098E-01
      0.00000000000000E+00   0.00000000000000E+00   1.48290161334334E-05   5.77499562120153E-21   1.48290161334334E-05
      2.32260209316707E-15  -5.00000000000000E-01  -5.00000000000000E-01   0.00000000000000E+00   0.00000000000000E+00
      0.00000000000000E+00   0.00000000000000E+00   0.00000000000000E+00  -4.78692874630671E-16
      6.39844456426594E-01
      0.00000000000000E+00   0.00000000000000E+00   0.00000000000000E+00   0.00000000000000E+00  -1.97623183096278E-05
     -1.74906215485901E-20  -1.97623183096279E-05   1.61069700810413E-15   6.39844456426594E-01   6.39844456426594E-01
      0.00000000000000E+00   0.00000000000000E+00   1.97623183096123E-05   5.78321646815653E-21   1.97623183096123E-05
      2.40197887209969E-15  -5.00000000000000E-01  -5.00000000000000E-01   0.00000000000000E+00   0.00000000000000E+00
      0.00000000000000E+00   0.00000000000000E+00   0.00000000000000E+00  -4.89663501318689E-16
      7.46393673344970E-01
      0.00000000000000E+00   0.00000000000000E+00   0.00000000000000E+00   0.00000000000000E+00  -2.66047359695845E-05
     -2.05406158316406E-20  -2.66047359695846E-05   1.60313825786561E-15   7.46393673344970E-01   7.46393673344970E-01
      0.00000000000000E+00   0.00000000000000E+00   2.66047359696081E-05   5.79506986311890E-21   2.66047359696081E-05
      2.49137097078439E-15  -5.00000000000000E-01  -5.00000000000000E-01   0.00000000000000E+00   0.00000000000000E+00
      0.00000000000000E+00   0.00000000000000E+00   0.00000000000000E+00  -5.04275814572450E-16
      8.69990764970287E-01
      0.00000000000000E+00   0.00000000000000E+00   0.00000000000000E+00   0.00000000000000E+00  -3.62426947304935E-05
     -3.08094426219550E-20  -3.62426947304935E-05   1.58955647152429E-15   8.69990764970287E-01   8.69990764970287E-01
      0.00000000000000E+00   0.00000000000000E+00   3.62426947305124E-05   5.81349342398264E-21   3.62426947305124E-05
      2.59033874107897E-15  -5.00000000000000E-01  -5.00000000000000E-01   0.00000000000000E+00   0.00000000000000E+00
      0.00000000000000E+00   0.00000000000000E+00   0.00000000000000E+00  -5.25071023983751E-16
      1.00000000000000E+00
      0.00000000000000E+00   0.00000000000000E+00   0.00000000000000E+00   0.00000000000000E+00  -4.82817635440228E-05
     -3.97053826283477E-20  -4.82817635440228E-05   1.57660554054551E-15   1.00000000000000E+00   1.00000000000000E+00
      0.00000000000000E+00   0.00000000000000E+00   4.82817635439970E-05   5.83777282447181E-21   4.82817635439970E-05
      2.69346017587353E-15  -5.00000000000000E-01  -5.00000000000000E-01   0.00000000000000E+00   0.00000000000000E+00
      0.00000000000000E+00   0.00000000000000E+00   0.00000000000000E+00  -5.44506319179697E-16
      0.00000000000000E+00
      0.00000000000000E+00   0.00000000000000E+00   0.00000000000000E+00   0.00000000000000E+00  -4.82817636093692E-05
     -3.97053921459086E-20  -4.82817636093693E-05   1.57660553658590E-15   1.00000000000000E+00   1.00000000000000E+00
      0.00000000000000E+00   0.00000000000000E+00   4.82817636093756E-05   5.83777282443744E-21   4.82817636093756E-05
      2.69346017318878E-15  -5.00000000000000E-01  -5.00000000000000E-01   0.00000000000000E+00   0.00000000000000E+00
      0.00000000000000E+00   0.00000000000000E+00   0.00000000000000E+00  -5.44506323352119E-16
      1.00000000000000E-03
      0.00000000000000E+00   0.00000000000000E+00   0.00000000000000E+00   0.00000000000000E+00  -4.82815140164945E-05
     -3.96686895663860E-20  -4.82815140164946E-05   1.57647696793727E-15   1.00000000000000E+00   1.00000000000000E+00
      0.00000000000000E+00   0.00000000000000E+00   4.82815140165053E-05   5.83766366925449E-21   4.82815140165053E-05
      2.69323747119918E-15  -4.98000000000000E-01  -4.98000000000000E-01   0.00000000000000E+00   0.00000000000000E+00
      0.00000000000000E+00   0.00000000000000E+00   0.00000000000000E+00  -5.42568577333566E-16
      2.17333333333333E-03
      0.00000000000000E+00   0.00000000000000E+00   0.00000000000000E+00   0.00000000000000E+00  -4.82812150302548E-05
     -3.96247630924532E-20  -4.82812150302548E-05   1.57632622272295E-15   1.00000000000000E+00   1.00000000000000E+00
      0.00000000000000E+00   0.00000000000000E+00   4.82812150302633E-05   5.83753546723813E-21   4.82812150302633E-05
      2.69297608174387E-15  -4.95653333333333E-01  -4.95653333333333E-01   0.00000000000000E+00   0.00000000000000E+00
      0.00000000000000E+00   0.00000000000000E+00   0.00000000000000E+00  -5.40297080894296E-16
      3.58133333333333E-03
      0.00000000000000E+00   0.00000000000000E+00   0.00000000000000E+00   0.00000000000000E+00  -4.82808474058966E-05
     -3.95708105902214E-20  -4.82808474058967E-05   1.57614548433924E-15   1.00000000000000E+00   1.00000000000000E+00
      0.00000000000000E+00   0.00000000000000E+00   4.82808474058895E-05   5.83738144605296E-21   4.82808474058895E-05
      2.69266228911377E-15  -4.92837333333333E-01  -4.92837333333333E-01   0.00000000000000E+00   0.00000000000000E+00
      0.00000000000000E+00   0.00000000000000E+00   0.00000000000000E+00  -5.37574363702926E-16
      5.25216000000000E-03
      0.00000000000000E+00   0.00000000000000E+00   0.00000000000000E+00   0.00000000000000E+00  -4.82803980957701E-05
     -3.95049562153385E-20  -4.82803980957701E-05   1.57593125312924E-15   1.00000000000000E+00   1.00000000000000E+00
      0.00000000000000E+00   0.00000000000000E+00   4.82803980957524E-05   5.83719842492793E-21   4.82803980957524E-05
      2.69228975501467E-15  -4.89495680000000E-01  -4.89495680000000E-01   0.00000000000000E+00   0.00000000000000E+00
      0.00000000000000E+00   0.00000000000000E+00   0.00000000000000E+00  -5.34347821788180E-16
      7.23487431111111E-03
      0.00000000000000E+00   0.00000000000000E+00   0.00000000000000E+00   0.00000000000000E+00  -4.82798458594129E-05
     -3.94241445608401E-20  -4.82798458594129E-05   1.57567740175347E-15   1.00000000000000E+00   1.00000000000000E+00
      0.00000000000000E+00   0.00000000000000E+00   4.82798458594165E-05   5.83698089520432E-21   4.82798458594165E-05
      2.69184745274770E-15  -4.85530251377778E-01  -4.85530251377778E-01   0.00000000000000E+00   0.00000000000000E+00
      0.00000000000000E+00   0.00000000000000E+00   0.00000000000000E+00  -5.30525328953590E-16
      9.58769529362963E-03
      0.00000000000000E+00   0.00000000000000E+00   0.00000000000000E+00   0.00000000000000E+00  -4.82791624744083E-05
     -3.93243344309280E-20  -4.82791624744083E-05   1.57537673355058E-15   1.00000000000000E+00   1.00000000000000E+00
      0.00000000000000E+00   0.00000000000000E+00   4.82791624743980E-05   5.83672228692795E-21   4.82791624743980E-05
      2.69132228141365E-15  -4.80824609412741E-01  -4.80824609412741E-01   0.00000000000000E+00   0.00000000000000E+00
      0.00000000000000E+00   0.00000000000000E+00   0.00000000000000E+00  -5.25998422851830E-16
      1.23797095262183E-02
      0.00000000000000E+00   0.00000000000000E+00   0.00000000000000E+00   0.00000000000000E+00  -4.82783098819226E-05
     -3.92001058206710E-20  -4.82783098819226E-05   1.57502082448159E-15   1.00000000000000E+00   1.00000000000000E+00
      0.00000000000000E+00   0.00000000000000E+00   4.82783098819314E-05   5.83641476270152E-21   4.82783098819314E-05
      2.69069867555853E-15  -4.75240580947563E-01  -4.75240580947563E-01   0.00000000000000E+00   0.00000000000000E+00
      0.00000000000000E+00   0.00000000000000E+00   0.00000000000000E+00  -5.20639667757355E-16
      1.56928997488901E-02
      0.00000000000000E+00   0.00000000000000E+00   0.00000000000000E+00   0.00000000000000E+00  -4.82772358243357E-05
     -3.90440652393279E-20  -4.82772358243358E-05   1.57459986696456E-15   1.00000000000000E+00   1.00000000000000E+00
      0.00000000000000E+00   0.00000000000000E+00   4.82772358243497E-05   5.83604897546698E-21   4.82772358243497E-05
      2.68995814816381E-15  -4.68614200502220E-01  -4.68614200502220E-01   0.00000000000000E+00   0.00000000000000E+00
      0.00000000000000E+00   0.00000000000000E+00   0.00000000000000E+00  -5.14299730007644E-16
      1.96245521464607E-02
      0.00000000000000E+00   0.00000000000000E+00   0.00000000000000E+00   0.00000000000000E+00  -4.82758671460490E-05
     -3.88459447948009E-20  -4.82758671460490E-05   1.57410253269863E-15   1.00000000000000E+00   1.00000000000000E+00
      0.00000000000000E+00   0.00000000000000E+00   4.82758671460491E-05   5.83561379045745E-21   4.82758671460491E-05
      2.68907875914850E-15  -4.60750895707079E-01  -4.60750895707079E-01   0.00000000000000E+00   0.00000000000000E+00
      0.00000000000000E+00   0.00000000000000E+00   0.00000000000000E+00  -5.06804229234056E-16
      2.42901129915778E-02
      0.00000000000000E+00   0.00000000000000E+00   0.00000000000000E+00   0.00000000000000E+00  -4.82740993480327E-05
     -3.85912222419894E-20  -4.82740993480327E-05   1.57351588954486E-15   1.00000000000000E+00   1.00000000000000E+00
      0.00000000000000E+00   0.00000000000000E+00   4.82740993480328E-05   5.83509598154216E-21   4.82740993480328E-05
      2.68803450872301E-15  -4.51419774016844E-01  -4.51419774016844E-01   0.00000000000000E+00   0.00000000000000E+00
      0.00000000000000E+00   0.00000000000000E+00   0.00000000000000E+00  -4.97950503733024E-16
      2.98265785277835E-02
      0.00000000000000E+00   0.00000000000000E+00   0.00000000000000E+00   0.00000000000000E+00  -4.82717801264176E-05
     -3.82589986218449E-20  -4.82717801264177E-05   1.57282543079060E-15   1.00000000000000E+00   1.00000000000000E+00
      0.00000000000000E+00   0.00000000000000E+00   4.82717801264249E-05   5.83447993651624E-21   4.82717801264249E-05
      2.68679466811833E-15  -4.40346842944433E-01  -4.40346842944433E-01   0.00000000000000E+00   0.00000000000000E+00
      0.00000000000000E+00   0.00000000000000E+00   0.00000000000000E+00  -4.87504558831492E-16
      3.63965176307475E-02
      0.00000000000000E+00   0.00000000000000E+00   0.00000000000000E+00   0.00000000000000E+00  -4.82686834100722E-05
     -3.78187676950101E-20  -4.82686834100723E-05   1.57201529904689E-15   1.00000000000000E+00   1.00000000000000E+00
      0.00000000000000E+00   0.00000000000000E+00   4.82686834100747E-05   5.83374746280442E-21   4.82686834100747E-05
      2.68532308590401E-15  -4.27206964738505E-01  -4.27206964738505E-01   0.00000000000000E+00   0.00000000000000E+00
      0.00000000000000E+00   0.00000000000000E+00   0.00000000000000E+00  -4.75198679514613E-16
      4.41928453662648E-02
      0.00000000000000E+00   0.00000000000000E+00   0.00000000000000E+00   0.00000000000000E+00  -4.82644692267815E-05
     -3.72256970917262E-20  -4.82644692267815E-05   1.57106877155953E-15   1.00000000000000E+00   1.00000000000000E+00
      0.00000000000000E+00   0.00000000000000E+00   4.82644692267698E-05   5.83287791380571E-21   4.82644692267698E-05
      2.68357754709772E-15  -4.11614309267470E-01  -4.11614309267470E-01   0.00000000000000E+00   0.00000000000000E+00
      0.00000000000000E+00   0.00000000000000E+00   0.00000000000000E+00  -4.60730524073609E-16
      5.34444876124120E-02
      0.00000000000000E+00   0.00000000000000E+00   0.00000000000000E+00   0.00000000000000E+00  -4.82586257603050E-05
     -3.64145069519717E-20  -4.82586257603050E-05   1.56996885688563E-15   1.00000000000000E+00   1.00000000000000E+00