DF-ISE text

Info {
  version   = 1.0
  type      = xyplot
  datasets  = [
    "time"
    "S OuterVoltage" "S InnerVoltage" "S QuasiFermiPotential" "S DisplacementCurrent" "S eCurrent"
    "S hCurrent" "S TotalCurrent" "S Charge" "D OuterVoltage" "D InnerVoltage"
    "D QuasiFermiPotential" "D DisplacementCurrent" "D eCurrent" "D hCurrent" "D TotalCurrent"
    "D Charge" "G OuterVoltage" "G InnerVoltage" "G QuasiFermiPotential" "G DisplacementCurrent"
    "G eCurrent" "G hCurrent" "G TotalCurrent" "G Charge" ]
  functions = [
    Time
    OuterVoltage InnerVoltage QuasiFermiPotential DisplacementCurrent eCurrent
    hCurrent TotalCurrent Charge OuterVoltage InnerVoltage
    QuasiFermiPotential DisplacementCurrent eCurrent hCurrent TotalCurrent
    Charge OuterVoltage InnerVoltage QuasiFermiPotential DisplacementCurrent
    eCurrent hCurrent TotalCurrent Charge ]
}

Data {
      0.00000000000000E+00
      0.00000000000000E+00   0.00000000000000E+00   0.00000000000000E+00   0.00000000000000E+00   1.73830018220129E-18
      4.01445357521331E-35   1.73830018220129E-18   1.78619763576081E-15   0.00000000000000E+00   0.00000000000000E+00
      0.00000000000000E+00   0.00000000000000E+00   7.14740982364170E-19   5.61390882189372E-35   7.14740982364170E-19
      1.95599736220995E-15  -5.00000000000000E-01  -5.00000000000000E-01   0.00000000000000E+00   0.00000000000000E+00
      0.00000000000000E+00   0.00000000000000E+00   0.00000000000000E+00  -2.67044147261064E-16
      0.00000000000000E+00
      0.00000000000000E+00   0.00000000000000E+00   0.00000000000000E+00   0.00000000000000E+00   9.29773081667170E-18
     -5.53309173409750E-34   9.29773081667170E-18   1.78619763574528E-15   0.00000000000000E+00   0.00000000000000E+00
      0.00000000000000E+00   0.00000000000000E+00  -4.32870209612061E-18  -5.71255290914585E-34  -4.32870209612061E-18
      1.95599736220486E-15  -5.00000000000000E-01  -5.00000000000000E-01   0.00000000000000E+00   0.00000000000000E+00
      0.00000000000000E+00   0.00000000000000E+00   0.00000000000000E+00  -2.67044147261079E-16
      1.00000000000000E-03
      0.00000000000000E+00   0.00000000000000E+00   0.00000000000000E+00   0.00000000000000E+00  -5.52556706271134E-17
     -1.42156425719399E-22  -5.52558127835391E-17   1.78551988142272E-15   1.00000000000000E-03   1.00000000000000E-03
      0.00000000000000E+00   0.00000000000000E+00   4.15415874172510E-17   1.24376994438068E-22   4.15417117942454E-17
      1.95647521004195E-15  -5.00000000000000E-01  -5.00000000000000E-01   0.00000000000000E+00   0.00000000000000E+00
      0.00000000000000E+00   0.00000000000000E+00   0.00000000000000E+00  -2.67670169257033E-16
      2.17333333333333E-03
      0.00000000000000E+00   0.00000000000000E+00   0.00000000000000E+00   0.00000000000000E+00  -1.12719730206208E-16
     -3.09919160558083E-22  -1.12720040125368E-16   1.78473686755026E-15   2.17333333333333E-03   2.17333333333333E-03
      0.00000000000000E+00   0.00000000000000E+00   1.17068683277574E-16   2.69806219516868E-22   1.17068953083793E-16
      1.95704418090258E-15  -5.00000000000000E-01  -5.00000000000000E-01   0.00000000000000E+00   0.00000000000000E+00
      0.00000000000000E+00   0.00000000000000E+00   0.00000000000000E+00  -2.68394343307845E-16
      3.56568888888889E-03
      0.00000000000000E+00   0.00000000000000E+00   0.00000000000000E+00   0.00000000000000E+00  -1.71523612267329E-16
     -5.10195535271365E-22  -1.71524122462864E-16   1.78382481597360E-15   3.56568888888889E-03   3.56568888888889E-03
      0.00000000000000E+00   0.00000000000000E+00   1.88630304381619E-16   4.41523194268762E-22   1.88630745904813E-16
      1.95773097015764E-15  -5.00000000000000E-01  -5.00000000000000E-01   0.00000000000000E+00   0.00000000000000E+00
      0.00000000000000E+00   0.00000000000000E+00   0.00000000000000E+00  -2.69239185497071E-16
      5.21795081481481E-03
      0.00000000000000E+00   0.00000000000000E+00   0.00000000000000E+00   0.00000000000000E+00  -2.64172834196493E-16
     -7.49291470959741E-22  -2.64173583487964E-16   1.78276662394883E-15   5.21795081481481E-03   5.21795081481481E-03
      0.00000000000000E+00   0.00000000000000E+00   2.65304720172548E-16   6.43845550107206E-22   2.65305364018099E-16
      1.95856227678335E-15  -5.00000000000000E-01  -5.00000000000000E-01   0.00000000000000E+00   0.00000000000000E+00
      0.00000000000000E+00   0.00000000000000E+00   0.00000000000000E+00  -2.70221314520641E-16
      7.17863496691358E-03
      0.00000000000000E+00   0.00000000000000E+00   0.00000000000000E+00   0.00000000000000E+00  -3.61727590083316E-16
     -1.03461828577811E-21  -3.61728624701602E-16   1.78154480347102E-15   7.17863496691358E-03   7.17863496691358E-03
      0.00000000000000E+00   0.00000000000000E+00   3.55804538082516E-16   8.81509846485233E-22   3.55805419592363E-16
      1.95957165563067E-15  -5.00000000000000E-01  -5.00000000000000E-01   0.00000000000000E+00   0.00000000000000E+00
      0.00000000000000E+00   0.00000000000000E+00   0.00000000000000E+00  -2.71358084696922E-16
      9.50531349407078E-03
      0.00000000000000E+00   0.00000000000000E+00   0.00000000000000E+00   0.00000000000000E+00  -4.76053568214646E-16
     -1.37475445885636E-21  -4.76054942969105E-16   1.78014248816394E-15   9.50531349407078E-03   9.50531349407078E-03
      0.00000000000000E+00   0.00000000000000E+00   4.75992389781771E-16   1.15950629966224E-21   4.75993549288071E-16
      1.96080150318712E-15  -5.00000000000000E-01  -5.00000000000000E-01   0.00000000000000E+00   0.00000000000000E+00
      0.00000000000000E+00   0.00000000000000E+00   0.00000000000000E+00  -2.72666818020122E-16
      1.22663053462973E-02
      0.00000000000000E+00   0.00000000000000E+00   0.00000000000000E+00   0.00000000000000E+00  -6.01210878700526E-16
     -1.77938728504595E-21  -6.01212658087811E-16   1.77854498672863E-15   1.22663053462973E-02   1.22663053462973E-02
      0.00000000000000E+00   0.00000000000000E+00   6.17140242969978E-16   1.48274339111286E-21   6.17141725713369E-16
      1.96230563881065E-15  -5.00000000000000E-01  -5.00000000000000E-01   0.00000000000000E+00   0.00000000000000E+00
      0.00000000000000E+00   0.00000000000000E+00   0.00000000000000E+00  -2.74163594226380E-16
      1.55426823442728E-02
      0.00000000000000E+00   0.00000000000000E+00   0.00000000000000E+00   0.00000000000000E+00  -7.72579866866524E-16
     -2.25901899008482E-21  -7.72582125885514E-16   1.77674205083550E-15   1.55426823442728E-02   1.55426823442728E-02
      0.00000000000000E+00   0.00000000000000E+00   7.79082128415003E-16   1.85544893643132E-21   7.79083983863939E-16
      1.96415262521381E-15  -5.00000000000000E-01  -5.00000000000000E-01   0.00000000000000E+00   0.00000000000000E+00
      0.00000000000000E+00   0.00000000000000E+00   0.00000000000000E+00  -2.75861462858347E-16
      1.94306497152037E-02
      0.00000000000000E+00   0.00000000000000E+00   0.00000000000000E+00   0.00000000000000E+00  -9.61699291399235E-16
     -2.82425828057598E-21  -9.61702115657515E-16   1.77473099702724E-15   1.94306497152037E-02   1.94306497152037E-02
      0.00000000000000E+00   0.00000000000000E+00   9.62258188462038E-16   2.28019047157110E-21   9.62260468652510E-16
      1.96642995157539E-15  -5.00000000000000E-01  -5.00000000000000E-01   0.00000000000000E+00   0.00000000000000E+00
      0.00000000000000E+00   0.00000000000000E+00   0.00000000000000E+00  -2.77767966569750E-16
      2.40443709953751E-02
      0.00000000000000E+00   0.00000000000000E+00   0.00000000000000E+00   0.00000000000000E+00  -1.17361582871692E-15
     -3.48444016840573E-21  -1.17361931315709E-15   1.77252073501498E-15   2.40443709953751E-02   2.40443709953751E-02
      0.00000000000000E+00   0.00000000000000E+00   1.16585419979443E-15   2.75640647896185E-21   1.16585695620091E-15
      1.96924913945717E-15  -5.00000000000000E-01  -5.00000000000000E-01   0.00000000000000E+00   0.00000000000000E+00
      0.00000000000000E+00   0.00000000000000E+00   0.00000000000000E+00  -2.79881939495992E-16
      2.95193202478451E-02
      0.00000000000000E+00   0.00000000000000E+00   0.00000000000000E+00   0.00000000000000E+00  -1.42263625336198E-15
     -4.24527187561934E-21  -1.42264049863386E-15   1.77013650462372E-15   2.95193202478451E-02   2.95193202478451E-02
      0.00000000000000E+00   0.00000000000000E+00   1.40748823477117E-15   3.27842487863225E-21   1.40749151319605E-15
      1.97275165502552E-15  -5.00000000000000E-01  -5.00000000000000E-01   0.00000000000000E+00   0.00000000000000E+00
      0.00000000000000E+00   0.00000000000000E+00   0.00000000000000E+00  -2.82189754936251E-16
      3.59432607040766E-02
      0.00000000000000E+00   0.00000000000000E+00   0.00000000000000E+00   0.00000000000000E+00  -1.68536271090115E-15
     -5.09606395694479E-21  -1.68536780696511E-15   1.76765064048597E-15   3.59432607040766E-02   3.59432607040766E-02
      0.00000000000000E+00   0.00000000000000E+00   1.67680588505811E-15   3.82731985743200E-21   1.67680971237797E-15
      1.97706469713959E-15  -5.00000000000000E-01  -5.00000000000000E-01   0.00000000000000E+00   0.00000000000000E+00
      0.00000000000000E+00   0.00000000000000E+00   0.00000000000000E+00  -2.84635692178431E-16
      4.34806841727216E-02
      0.00000000000000E+00   0.00000000000000E+00   0.00000000000000E+00   0.00000000000000E+00  -1.98059694984588E-15
     -6.02337422620437E-21  -1.98060297322010E-15   1.76512907414628E-15   4.34806841727216E-02   4.34806841727216E-02
      0.00000000000000E+00   0.00000000000000E+00   1.97051555085486E-15   4.38179298448718E-21   1.97051993264784E-15
      1.98238050024805E-15  -5.00000000000000E-01  -5.00000000000000E-01   0.00000000000000E+00   0.00000000000000E+00
      0.00000000000000E+00   0.00000000000000E+00   0.00000000000000E+00  -2.87173855456752E-16
      5.23245943759316E-02
      0.00000000000000E+00   0.00000000000000E+00   0.00000000000000E+00   0.00000000000000E+00  -2.27348885218815E-15
     -7.00057594748664E-21  -2.27349585276410E-15   1.76265516592566E-15   5.23245943759316E-02   5.23245943759316E-02
      0.00000000000000E+00   0.00000000000000E+00   2.26433451720249E-15   4.91285534940218E-21   2.26433943005784E-15
      1.98892617852420E-15  -5.00000000000000E-01  -5.00000000000000E-01   0.00000000000000E+00   0.00000000000000E+00
      0.00000000000000E+00   0.00000000000000E+00   0.00000000000000E+00  -2.89745493133628E-16
      6.27014490143648E-02
      0.00000000000000E+00   0.00000000000000E+00   0.00000000000000E+00   0.00000000000000E+00  -2.56483745756812E-15
     -7.98762601623383E-21  -2.56484544519413E-15   1.76032165935275E-15   6.27014490143648E-02   6.27014490143648E-02
      0.00000000000000E+00   0.00000000000000E+00   2.56033058347904E-15   5.38695876545046E-21   2.56033597043780E-15
      1.99696139356578E-15  -5.00000000000000E-01  -5.00000000000000E-01   0.00000000000000E+00   0.00000000000000E+00
      0.00000000000000E+00   0.00000000000000E+00   0.00000000000000E+00  -2.92286016076778E-16
      7.48769584567930E-02
      0.00000000000000E+00   0.00000000000000E+00   0.00000000000000E+00   0.00000000000000E+00  -2.83829936257979E-15
     -8.93599750417169E-21  -2.83830829857729E-15   1.75821571637683E-15   7.48769584567930E-02   7.48769584567930E-02
      0.00000000000000E+00   0.00000000000000E+00   2.83436316011978E-15   5.77247131497011E-21   2.83436893259109E-15
      2.00677186462949E-15  -5.00000000000000E-01  -5.00000000000000E-01   0.00000000000000E+00   0.00000000000000E+00
      0.00000000000000E+00   0.00000000000000E+00   0.00000000000000E+00  -2.94737803885398E-16
      8.91628895359088E-02
      0.00000000000000E+00   0.00000000000000E+00   0.00000000000000E+00   0.00000000000000E+00  -3.08820262954433E-15
     -9.79975003694734E-21  -3.08821242929436E-15   1.75639913294500E-15   8.91628895359088E-02   8.91628895359088E-02
      0.00000000000000E+00   0.00000000000000E+00   3.08708610777412E-15   6.04809799905439E-21   3.08709215587212E-15
      2.01866041191408E-15  -5.00000000000000E-01  -5.00000000000000E-01   0.00000000000000E+00   0.00000000000000E+00
      0.00000000000000E+00   0.00000000000000E+00   0.00000000000000E+00  -2.97067042897239E-16
      1.05925048668738E-01
      0.00000000000000E+00   0.00000000000000E+00   0.00000000000000E+00   0.00000000000000E+00  -3.30254720155810E-15
     -1.05501206945831E-20  -3.30255775167880E-15   1.75488958437287E-15   1.05925048668738E-01   1.05925048668738E-01
      0.00000000000000E+00   0.00000000000000E+00   3.29249592948797E-15   6.20984972634707E-21   3.29250213933770E-15
      2.03293979663267E-15  -5.00000000000000E-01  -5.00000000000000E-01   0.00000000000000E+00   0.00000000000000E+00
      0.00000000000000E+00   0.00000000000000E+00   0.00000000000000E+00  -2.99279734723057E-16
      1.25592648717924E-01
      0.00000000000000E+00   0.00000000000000E+00   0.00000000000000E+00   0.00000000000000E+00  -3.47381371988381E-15
     -1.11880963283640E-20  -3.47382490798014E-15   1.75364939991757E-15   1.25592648717924E-01   1.25592648717924E-01
      0.00000000000000E+00   0.00000000000000E+00   3.48455586445977E-15   6.27367722507195E-21   3.48456213813700E-15
      2.04993204481356E-15  -5.00000000000000E-01  -5.00000000000000E-01   0.00000000000000E+00   0.00000000000000E+00
      0.00000000000000E+00   0.00000000000000E+00   0.00000000000000E+00  -3.01431495049193E-16
      1.48669299442303E-01
      0.00000000000000E+00   0.00000000000000E+00   0.00000000000000E+00   0.00000000000000E+00  -3.62771474095747E-15
     -1.17514184294799E-20  -3.62772649237590E-15   1.75258277894002E-15   1.48669299442303E-01   1.48669299442303E-01
      0.00000000000000E+00   0.00000000000000E+00   3.64403086159945E-15   6.27423294352795E-21   3.64403713583239E-15
      2.06997524047156E-15  -5.00000000000000E-01  -5.00000000000000E-01   0.00000000000000E+00   0.00000000000000E+00
      0.00000000000000E+00   0.00000000000000E+00   0.00000000000000E+00  -3.03630424306580E-16
      1.75745902958907E-01
      0.00000000000000E+00   0.00000000000000E+00   0.00000000000000E+00   0.00000000000000E+00  -3.78350459747316E-15
     -1.23188242296107E-20  -3.78351691629739E-15   1.75153445253442E-15   1.75745902958907E-01   1.75745902958907E-01
      0.00000000000000E+00   0.00000000000000E+00   3.77329356797969E-15   6.25763461772942E-21   3.77329982561430E-15
      2.09343372544617E-15  -5.00000000000000E-01  -5.00000000000000E-01   0.00000000000000E+00   0.00000000000000E+00
      0.00000000000000E+00   0.00000000000000E+00   0.00000000000000E+00  -3.06038903613840E-16
      2.07515784418389E-01
      0.00000000000000E+00   0.00000000000000E+00   0.00000000000000E+00   0.00000000000000E+00  -3.98593029169871E-15
     -1.30146786950347E-20  -3.98594330637741E-15   1.75028868845711E-15   2.07515784418389E-01   2.07515784418389E-01
      0.00000000000000E+00   0.00000000000000E+00   3.98185695176193E-15   6.25529648265763E-21   3.98186320705842E-15
      2.12071156052765E-15  -5.00000000000000E-01  -5.00000000000000E-01   0.00000000000000E+00   0.00000000000000E+00
      0.00000000000000E+00   0.00000000000000E+00   0.00000000000000E+00  -3.08875225282477E-16
      2.44792445330848E-01
      0.00000000000000E+00   0.00000000000000E+00   0.00000000000000E+00   0.00000000000000E+00  -4.23474095506431E-15
     -1.39877996986748E-20  -4.23475494286401E-15   1.74862069594751E-15   2.44792445330848E-01   2.44792445330848E-01
      0.00000000000000E+00   0.00000000000000E+00   4.24240056787050E-15   6.26326844462330E-21   4.24240683113895E-15
      2.15230187689362E-15  -5.00000000000000E-01  -5.00000000000000E-01   0.00000000000000E+00   0.00000000000000E+00
      0.00000000000000E+00   0.00000000000000E+00   0.00000000000000E+00  -3.12371659440033E-16
      2.88530394134800E-01
      0.00000000000000E+00   0.00000000000000E+00   0.00000000000000E+00   0.00000000000000E+00  -4.57472353886187E-15
     -1.52740102354832E-20  -4.57473881287210E-15   1.74653078700608E-15   2.88530394134800E-01   2.88530394134800E-01
      0.00000000000000E+00   0.00000000000000E+00   4.58309928361890E-15   6.27142839839424E-21   4.58310555504730E-15
      2.18894949321009E-15  -5.00000000000000E-01  -5.00000000000000E-01   0.00000000000000E+00   0.00000000000000E+00
      0.00000000000000E+00   0.00000000000000E+00   0.00000000000000E+00  -3.16580505497687E-16
      3.39266414747385E-01
      0.00000000000000E+00   0.00000000000000E+00   0.00000000000000E+00   0.00000000000000E+00  -4.91468715274231E-15
     -1.65534199667617E-20  -4.91470370616228E-15   1.74455162706677E-15   3.39266414747385E-01   3.39266414747385E-01
      0.00000000000000E+00   0.00000000000000E+00   4.89516664235987E-15   6.27887832480834E-21   4.89517292123820E-15
      2.23135107638996E-15  -5.00000000000000E-01  -5.00000000000000E-01   0.00000000000000E+00   0.00000000000000E+00
      0.00000000000000E+00   0.00000000000000E+00   0.00000000000000E+00  -3.21087225405222E-16
      3.98120198657982E-01
      0.00000000000000E+00   0.00000000000000E+00   0.00000000000000E+00   0.00000000000000E+00  -5.13089451385360E-15
     -1.73944699611555E-20  -5.13091190832356E-15   1.74326624310651E-15   3.98120198657982E-01   3.98120198657982E-01
      0.00000000000000E+00   0.00000000000000E+00   5.12397613506410E-15   6.28861665377448E-21   5.12398242368076E-15
      2.28071204724419E-15  -5.00000000000000E-01  -5.00000000000000E-01   0.00000000000000E+00   0.00000000000000E+00
      0.00000000000000E+00   0.00000000000000E+00   0.00000000000000E+00  -3.25468950375240E-16
      4.65605870875468E-01
      0.00000000000000E+00   0.00000000000000E+00   0.00000000000000E+00   0.00000000000000E+00  -5.21294851845875E-15
     -1.77614852362758E-20  -5.21296627994399E-15   1.74264946342965E-15   4.65605870875468E-01   4.65605870875468E-01
      0.00000000000000E+00   0.00000000000000E+00   5.19188853526232E-15   6.29667657275716E-21   5.19189483193889E-15
      2.33732305711074E-15  -5.00000000000000E-01  -5.00000000000000E-01   0.00000000000000E+00   0.00000000000000E+00
      0.00000000000000E+00   0.00000000000000E+00   0.00000000000000E+00  -3.29775139314116E-16
      5.42989441684851E-01
      0.00000000000000E+00   0.00000000000000E+00   0.00000000000000E+00   0.00000000000000E+00  -5.24471258634819E-15
     -1.78844385961844E-20  -5.24473047078679E-15   1.74234583367230E-15   5.42989441684851E-01   5.42989441684851E-01
      0.00000000000000E+00   0.00000000000000E+00   5.24493721538820E-15   6.30312821185179E-21   5.24494351851642E-15
      2.40188889776524E-15  -5.00000000000000E-01  -5.00000000000000E-01   0.00000000000000E+00   0.00000000000000E+00
      0.00000000000000E+00   0.00000000000000E+00   0.00000000000000E+00  -3.34371807970408E-16
      6.32754383823736E-01
      0.00000000000000E+00   0.00000000000000E+00   0.00000000000000E+00   0.00000000000000E+00  -5.26986185407205E-15
     -1.79276168414593E-20  -5.26987978168889E-15   1.74211207859259E-15   6.32754383823736E-01   6.32754383823736E-01
      0.00000000000000E+00   0.00000000000000E+00   5.27155651818041E-15   6.30882668741332E-21   5.27156282700710E-15
      2.47616648298214E-15  -5.00000000000000E-01  -5.00000000000000E-01   0.00000000000000E+00   0.00000000000000E+00
      0.00000000000000E+00   0.00000000000000E+00   0.00000000000000E+00  -3.39599079491840E-16
      7.34487984914472E-01
      0.00000000000000E+00   0.00000000000000E+00   0.00000000000000E+00   0.00000000000000E+00  -5.27446710710793E-15
     -1.79578207544289E-20  -5.27448506492869E-15   1.74184693462986E-15   7.34487984914472E-01   7.34487984914472E-01
      0.00000000000000E+00   0.00000000000000E+00   5.29268303078037E-15   6.31448403705671E-21   5.29268934526441E-15
      2.55960396565456E-15  -5.00000000000000E-01  -5.00000000000000E-01   0.00000000000000E+00   0.00000000000000E+00
      0.00000000000000E+00   0.00000000000000E+00   0.00000000000000E+00  -3.45515928216753E-16
      8.51142514165183E-01
      0.00000000000000E+00   0.00000000000000E+00   0.00000000000000E+00   0.00000000000000E+00  -5.27708550773427E-15
     -1.80097498471688E-20  -5.27710351748411E-15   1.74148404054703E-15   8.51142514165183E-01   8.51142514165183E-01
      0.00000000000000E+00   0.00000000000000E+00   5.27382857744361E-15   6.32081727320824E-21   5.27383489826088E-15
      2.65444973539752E-15  -5.00000000000000E-01  -5.00000000000000E-01   0.00000000000000E+00   0.00000000000000E+00
      0.00000000000000E+00   0.00000000000000E+00   0.00000000000000E+00  -3.52340668010221E-16
      9.84906374372664E-01
      0.00000000000000E+00   0.00000000000000E+00   0.00000000000000E+00   0.00000000000000E+00  -5.32282721958916E-15
     -1.82243880549421E-20  -5.32284544397722E-15   1.74081070708269E-15   9.84906374372664E-01   9.84906374372664E-01
      0.00000000000000E+00   0.00000000000000E+00   5.32868100606858E-15   6.32829662379974E-21   5.32868733436520E-15
      2.76211258256647E-15  -5.00000000000000E-01  -5.00000000000000E-01   0.00000000000000E+00   0.00000000000000E+00
      0.00000000000000E+00   0.00000000000000E+00   0.00000000000000E+00  -3.60370375255896E-16
      1.00000000000000E+00
      0.00000000000000E+00   0.00000000000000E+00   0.00000000000000E+00   0.00000000000000E+00  -5.34404736417949E-15
     -1.82758380277649E-20  -5.34406564001752E-15   1.74069498665488E-15   1.00000000000000E+00   1.00000000000000E+00
      0.00000000000000E+00   0.00000000000000E+00   5.33954009032587E-15   6.32917429961555E-21   5.33954641950017E-15
      2.77417301600616E-15  -5.00000000000000E-01  -5.00000000000000E-01   0.00000000000000E+00   0.00000000000000E+00
      0.00000000000000E+00   0.00000000000000E+00   0.00000000000000E+00  -3.61308867189864E-16
      0.00000000000000E+00
      0.00000000000000E+00   0.00000000000000E+00   0.00000000000000E+00   0.00000000000000E+00  -5.34302002328032E-15
     -1.82758533068258E-20  -5.34303829913362E-15   1.74069496601865E-15   1.00000000000000E+00   1.00000000000000E+00
      0.00000000000000E+00   0.00000000000000E+00   5.33817483586019E-15   6.32917429906467E-21   5.33818116503449E-15
      2.77417300428625E-15  -5.00000000000000E-01  -5.00000000000000E-01   0.00000000000000E+00   0.00000000000000E+00
      0.00000000000000E+00   0.00000000000000E+00   0.00000000000000E+00  -3.61308884305251E-16
      1.00000000000000E-03
      0.00000000000000E+00   0.00000000000000E+00   0.00000000000000E+00   0.00000000000000E+00  -5.35462343190413E-15
     -1.82748581419677E-20  -5.35464170676227E-15   1.74066251833890E-15   1.00000000000000E+00   1.00000000000000E+00
      0.00000000000000E+00   0.00000000000000E+00   5.33965713877968E-15   6.32912685224766E-21   5.33966346790653E-15
      2.77405697677927E-15  -4.98000000000000E-01  -4.98000000000000E-01   0.00000000000000E+00   0.00000000000000E+00
      0.00000000000000E+00   0.00000000000000E+00   0.00000000000000E+00  -3.58996910502748E-16
      2.18666666666667E-03
      0.00000000000000E+00   0.00000000000000E+00   0.00000000000000E+00   0.00000000000000E+00  -5.34106677609440E-15
     -1.82737759580413E-20  -5.34108504987035E-15   1.74062379551891E-15   1.00000000000000E+00   1.00000000000000E+00
      0.00000000000000E+00   0.00000000000000E+00   5.36034638011436E-15   6.32907053578897E-21   5.36035270918489E-15
      2.77391914474690E-15  -4.95626666666667E-01  -4.95626666666667E-01   0.00000000000000E+00   0.00000000000000E+00
      0.00000000000000E+00   0.00000000000000E+00   0.00000000000000E+00  -3.56253824828304E-16
      3.61066666666667E-03
      0.00000000000000E+00   0.00000000000000E+00   0.00000000000000E+00   0.00000000000000E+00  -5.35437170321452E-15
     -1.82724181290956E-20  -5.35438997563265E-15   1.74057728558639E-15   1.00000000000000E+00   1.00000000000000E+00
      0.00000000000000E+00   0.00000000000000E+00   5.37008150684201E-15   6.32900294440223E-21   5.37008783584496E-15
      2.77375369003842E-15  -4.92778666666667E-01  -4.92778666666667E-01   0.00000000000000E+00   0.00000000000000E+00
      0.00000000000000E+00   0.00000000000000E+00   0.00000000000000E+00  -3.52962555508965E-16
      5.31946666666667E-03
      0.00000000000000E+00   0.00000000000000E+00   0.00000000000000E+00   0.00000000000000E+00  -5.35795553361710E-15
     -1.82707678824364E-20  -5.35797380438498E-15   1.74052132396306E-15   1.00000000000000E+00   1.00000000000000E+00
      0.00000000000000E+00   0.00000000000000E+00   5.34440969800395E-15   6.32892181498872E-21   5.34441602692576E-15
      2.77355501238838E-15  -4.89361066666667E-01  -4.89361066666667E-01   0.00000000000000E+00   0.00000000000000E+00
      0.00000000000000E+00   0.00000000000000E+00   0.00000000000000E+00  -3.49013735780234E-16
      7.37002666666667E-03
      0.00000000000000E+00   0.00000000000000E+00   0.00000000000000E+00   0.00000000000000E+00  -5.35307793689158E-15
     -1.82687790915156E-20  -5.35309620567067E-15   1.74045392278362E-15   1.00000000000000E+00   1.00000000000000E+00
      0.00000000000000E+00   0.00000000000000E+00   5.34609987153808E-15   6.32882442930092E-21   5.34610620036251E-15
      2.77331638982554E-15  -4.85259946666667E-01  -4.85259946666667E-01   0.00000000000000E+00   0.00000000000000E+00
      0.00000000000000E+00   0.00000000000000E+00   0.00000000000000E+00  -3.44276201668127E-16
      9.83069866666667E-03
      0.00000000000000E+00   0.00000000000000E+00   0.00000000000000E+00   0.00000000000000E+00  -5.33892639627511E-15
     -1.82663732341308E-20  -5.33894466264835E-15   1.74037269039120E-15   1.00000000000000E+00   1.00000000000000E+00
      0.00000000000000E+00   0.00000000000000E+00   5.36113413156528E-15   6.32870752089147E-21   5.36114046027280E-15
      2.77302974174523E-15  -4.80338602666667E-01  -4.80338602666667E-01   0.00000000000000E+00   0.00000000000000E+00
      0.00000000000000E+00   0.00000000000000E+00   0.00000000000000E+00  -3.38592686162493E-16
      1.27835050666667E-02
      0.00000000000000E+00   0.00000000000000E+00   0.00000000000000E+00   0.00000000000000E+00  -5.35507772262164E-15
     -1.82634534993976E-20  -5.35509598607514E-15   1.74027470477885E-15   1.00000000000000E+00   1.00000000000000E+00
      0.00000000000000E+00   0.00000000000000E+00   5.35648429211967E-15   6.32856716166456E-21   5.35649062068683E-15
      2.77268532563184E-15  -4.74432989866667E-01  -4.74432989866667E-01   0.00000000000000E+00   0.00000000000000E+00
      0.00000000000000E+00   0.00000000000000E+00   0.00000000000000E+00  -3.31774697564476E-16
      1.63268727466667E-02
      0.00000000000000E+00   0.00000000000000E+00   0.00000000000000E+00   0.00000000000000E+00  -5.34891800729350E-15
     -1.82599225222539E-20  -5.34893626721602E-15   1.74015635149511E-15   1.00000000000000E+00   1.00000000000000E+00
      0.00000000000000E+00   0.00000000000000E+00   5.36163703600716E-15   6.32839862377387E-21   5.36164336440579E-15
      2.77227136413745E-15  -4.67346254506667E-01  -4.67346254506667E-01   0.00000000000000E+00   0.00000000000000E+00
      0.00000000000000E+00   0.00000000000000E+00   0.00000000000000E+00  -3.23596413982748E-16
      2.05316690602667E-02
      0.00000000000000E+00   0.00000000000000E+00   0.00000000000000E+00   0.00000000000000E+00  -5.34044907821209E-15
     -1.82556538816464E-20  -5.34046733386597E-15   1.74001484457821E-15   1.00000000000000E+00   1.00000000000000E+00
      0.00000000000000E+00   0.00000000000000E+00   5.33666173086520E-15   6.32819846434747E-21   5.33666805906367E-15
      2.77177919601007E-15  -4.58936661879467E-01  -4.58936661879467E-01   0.00000000000000E+00   0.00000000000000E+00
      0.00000000000000E+00   0.00000000000000E+00   0.00000000000000E+00  -3.13896267798479E-16
      2.55213606857387E-02
      0.00000000000000E+00   0.00000000000000E+00   0.00000000000000E+00   0.00000000000000E+00  -5.35128345958602E-15
     -1.82504955370500E-20  -5.35130171008156E-15   1.73984536276229E-15   1.00000000000000E+00   1.00000000000000E+00
      0.00000000000000E+00   0.00000000000000E+00   5.34397705773435E-15   6.32796069431983E-21   5.34398338569505E-15
      2.77119377983594E-15  -4.48957278628523E-01  -4.48957278628523E-01   0.00000000000000E+00   0.00000000000000E+00
      0.00000000000000E+00   0.00000000000000E+00   0.00000000000000E+00  -3.02392348030240E-16
      3.14424614146321E-02
      0.00000000000000E+00   0.00000000000000E+00   0.00000000000000E+00   0.00000000000000E+00  -5.34595340154509E-15
     -1.82442397828936E-20  -5.34597164578487E-15   1.73964197899211E-15   1.00000000000000E+00   1.00000000000000E+00
      0.00000000000000E+00   0.00000000000000E+00   5.35162822726960E-15   6.32767815710973E-21   5.35163455494776E-15
      2.77049706544104E-15  -4.37115077170736E-01  -4.37115077170736E-01   0.00000000000000E+00   0.00000000000000E+00
      0.00000000000000E+00   0.00000000000000E+00   0.00000000000000E+00  -2.88751141121570E-16
      3.84688342795856E-02
      0.00000000000000E+00   0.00000000000000E+00   0.00000000000000E+00   0.00000000000000E+00  -5.35169133462601E-15
     -1.82366190006430E-20  -5.35170957124501E-15   1.73939732290848E-15   1.00000000000000E+00   1.00000000000000E+00
      0.00000000000000E+00   0.00000000000000E+00   5.34833930802252E-15   6.32734227776708E-21   5.34834563536480E-15
      2.76966730708184E-15  -4.23062331440829E-01  -4.23062331440829E-01   0.00000000000000E+00   0.00000000000000E+00
      0.00000000000000E+00   0.00000000000000E+00   0.00000000000000E+00  -2.72578461330443E-16
      4.68067967459972E-02
      0.00000000000000E+00   0.00000000000000E+00   0.00000000000000E+00   0.00000000000000E+00  -5.35367477395462E-15
     -1.82272836862523E-20  -5.35369300123830E-15   1.73910213398870E-15   1.00000000000000E+00   1.00000000000000E+00