DF-ISE text

Info {
  version   = 1.0
  type      = xyplot
  datasets  = [
    "time"
    "S OuterVoltage" "S InnerVoltage" "S QuasiFermiPotential" "S DisplacementCurrent" "S eCurrent"
    "S hCurrent" "S TotalCurrent" "S Charge" "D OuterVoltage" "D InnerVoltage"
    "D QuasiFermiPotential" "D DisplacementCurrent" "D eCurrent" "D hCurrent" "D TotalCurrent"
    "D Charge" "G OuterVoltage" "G InnerVoltage" "G QuasiFermiPotential" "G DisplacementCurrent"
    "G eCurrent" "G hCurrent" "G TotalCurrent" "G Charge" ]
  functions = [
    Time
    OuterVoltage InnerVoltage QuasiFermiPotential DisplacementCurrent eCurrent
    hCurrent TotalCurrent Charge OuterVoltage InnerVoltage
    QuasiFermiPotential DisplacementCurrent eCurrent hCurrent TotalCurrent
    Charge OuterVoltage InnerVoltage QuasiFermiPotential DisplacementCurrent
    eCurrent hCurrent TotalCurrent Charge ]
}

Data {
      0.00000000000000E+00
      0.00000000000000E+00   0.00000000000000E+00   0.00000000000000E+00   0.00000000000000E+00  -3.49366512230314E-19
     -5.48457698174353E-34  -3.49366512230315E-19   5.89447900637114E-16   0.00000000000000E+00   0.00000000000000E+00
      0.00000000000000E+00   0.00000000000000E+00   9.90173017686202E-31  -4.96947083100011E-34   9.89676070603102E-31
      7.59262960122766E-16  -5.00000000000000E-01  -5.00000000000000E-01   0.00000000000000E+00   0.00000000000000E+00
      0.00000000000000E+00   0.00000000000000E+00   0.00000000000000E+00  -3.93459382929067E-16
      0.00000000000000E+00
      0.00000000000000E+00   0.00000000000000E+00   0.00000000000000E+00   0.00000000000000E+00   2.44556558850713E-18
      2.25751549025683E-31   2.44556558850736E-18   5.89447900058561E-16   0.00000000000000E+00   0.00000000000000E+00
      0.00000000000000E+00   0.00000000000000E+00  -6.97645761978156E-19   2.26382050855839E-31  -6.97645761977930E-19
      7.59262959489896E-16  -5.00000000000000E-01  -5.00000000000000E-01   0.00000000000000E+00   0.00000000000000E+00
      0.00000000000000E+00   0.00000000000000E+00   0.00000000000000E+00  -3.93459382958608E-16
      1.00000000000000E-03
      0.00000000000000E+00   0.00000000000000E+00   0.00000000000000E+00   0.00000000000000E+00  -4.54180371365997E-18
     -1.20158305524011E-23  -4.54181572949052E-18   5.89445116308838E-16   1.00000000000000E-03   1.00000000000000E-03
      0.00000000000000E+00   0.00000000000000E+00   3.09373619166504E-14   1.84977501743476E-21   3.09373637664254E-14
      7.59879488918540E-16  -5.00000000000000E-01  -5.00000000000000E-01   0.00000000000000E+00   0.00000000000000E+00
      0.00000000000000E+00   0.00000000000000E+00   0.00000000000000E+00  -3.93626689175614E-16
      2.18666666666667E-03
      0.00000000000000E+00   0.00000000000000E+00   0.00000000000000E+00   0.00000000000000E+00   3.84302266181059E-18
     -2.59755255584190E-23   3.84299668628503E-18   5.89441883022072E-16   2.18666666666667E-03   2.18666666666667E-03
      0.00000000000000E+00   0.00000000000000E+00   4.18041917816048E-18   3.95539522119356E-21   4.18437457338167E-18
      7.60611073681065E-16  -5.00000000000000E-01  -5.00000000000000E-01   0.00000000000000E+00   0.00000000000000E+00
      0.00000000000000E+00   0.00000000000000E+00   0.00000000000000E+00  -3.93825112709785E-16
      3.61066666666667E-03
      0.00000000000000E+00   0.00000000000000E+00   0.00000000000000E+00   0.00000000000000E+00   3.49302034730710E-19
     -4.23814108184167E-23   3.49259653319892E-19   5.89438084271350E-16   3.61066666666667E-03   3.61066666666667E-03
      0.00000000000000E+00   0.00000000000000E+00   5.22090565093081E-18   6.35964872432399E-21   5.22726529965513E-18
      7.61488912615189E-16  -5.00000000000000E-01  -5.00000000000000E-01   0.00000000000000E+00   0.00000000000000E+00
      0.00000000000000E+00   0.00000000000000E+00   0.00000000000000E+00  -3.94063093347572E-16
      5.31946666666667E-03
      0.00000000000000E+00   0.00000000000000E+00   0.00000000000000E+00   0.00000000000000E+00   1.74677038234611E-18
     -6.15779015193913E-23   1.74670880444460E-18   5.89433640882670E-16   5.31946666666667E-03   5.31946666666667E-03
      0.00000000000000E+00   0.00000000000000E+00   2.08684034510104E-18   9.07776266714368E-21   2.09591810776818E-18
      7.62542227861336E-16  -5.00000000000000E-01  -5.00000000000000E-01   0.00000000000000E+00   0.00000000000000E+00
      0.00000000000000E+00   0.00000000000000E+00   0.00000000000000E+00  -3.94348489415514E-16
      7.37002666666667E-03
      0.00000000000000E+00   0.00000000000000E+00   0.00000000000000E+00   0.00000000000000E+00  -3.14452147165741E-18
     -8.39631170517920E-23  -3.14460543477447E-18   5.89428461473622E-16   7.37002666666667E-03   7.37002666666667E-03
      0.00000000000000E+00   0.00000000000000E+00   1.46035951503035E-21   1.21142885412466E-20   1.35746480562770E-20
      7.63806062171594E-16  -5.00000000000000E-01  -5.00000000000000E-01   0.00000000000000E+00   0.00000000000000E+00
      0.00000000000000E+00   0.00000000000000E+00   0.00000000000000E+00  -3.94690727750710E-16
      9.83069866666667E-03
      0.00000000000000E+00   0.00000000000000E+00   0.00000000000000E+00   0.00000000000000E+00  -2.44582612546480E-18
     -1.09906971057878E-22  -2.44593603243586E-18   5.89422461454928E-16   9.83069866666667E-03   9.83069866666667E-03
      0.00000000000000E+00   0.00000000000000E+00   4.16141210074503E-18   1.54584044127702E-20   4.17687050515780E-18
      7.65322453642263E-16  -5.00000000000000E-01  -5.00000000000000E-01   0.00000000000000E+00   0.00000000000000E+00
      0.00000000000000E+00   0.00000000000000E+00   0.00000000000000E+00  -3.95101080160848E-16
      1.27835050666667E-02
      0.00000000000000E+00   0.00000000000000E+00   0.00000000000000E+00   0.00000000000000E+00   4.89115949974547E-18
     -1.39932626752614E-22   4.89101956711871E-18   5.89415521167437E-16   1.27835050666667E-02   1.27835050666667E-02
      0.00000000000000E+00   0.00000000000000E+00   3.48443877280382E-19   1.90785982815028E-20   3.67522475561885E-19
      7.67141773140215E-16  -5.00000000000000E-01  -5.00000000000000E-01   0.00000000000000E+00   0.00000000000000E+00
      0.00000000000000E+00   0.00000000000000E+00   0.00000000000000E+00  -3.95593112139162E-16
      1.62875019946667E-02
      0.00000000000000E+00   0.00000000000000E+00   0.00000000000000E+00   0.00000000000000E+00  -5.24105816682310E-18
     -1.74139921607437E-22  -5.24123230674471E-18   5.89407619173920E-16   1.62875019946667E-02   1.62875019946667E-02
      0.00000000000000E+00   0.00000000000000E+00  -1.03247312165403E-18   2.28780704318122E-20  -1.00959505122222E-18
      7.69300174738582E-16  -5.00000000000000E-01  -5.00000000000000E-01   0.00000000000000E+00   0.00000000000000E+00
      0.00000000000000E+00   0.00000000000000E+00   0.00000000000000E+00  -3.96176495902340E-16
      2.04455783492267E-02
      0.00000000000000E+00   0.00000000000000E+00   0.00000000000000E+00   0.00000000000000E+00   2.09606478783609E-18
     -2.13065284697971E-22   2.09585172255139E-18   5.89398633593579E-16   2.04455783492267E-02   2.04455783492267E-02
      0.00000000000000E+00   0.00000000000000E+00  -3.40424231537364E-19   2.67755745397654E-20  -3.13648656997598E-19
      7.71860669002502E-16  -5.00000000000000E-01  -5.00000000000000E-01   0.00000000000000E+00   0.00000000000000E+00
      0.00000000000000E+00   0.00000000000000E+00   0.00000000000000E+00  -3.96868220622891E-16
      2.53798289566379E-02
      0.00000000000000E+00   0.00000000000000E+00   0.00000000000000E+00   0.00000000000000E+00  -3.27372343411086E-22
     -2.57374004254241E-22  -5.84746347665327E-22   5.89388413491893E-16   2.53798289566379E-02   2.53798289566379E-02
      0.00000000000000E+00   0.00000000000000E+00  -4.45694064852896E-18   3.06668947397923E-20  -4.42627375378917E-18
      7.74897888103170E-16  -5.00000000000000E-01  -5.00000000000000E-01   0.00000000000000E+00   0.00000000000000E+00
      0.00000000000000E+00   0.00000000000000E+00   0.00000000000000E+00  -3.97688472664747E-16
      3.12351396774325E-02
      0.00000000000000E+00   0.00000000000000E+00   0.00000000000000E+00   0.00000000000000E+00  -1.04857505748771E-18
     -3.08017968983722E-22  -1.04888307545669E-18   5.89376742839598E-16   3.12351396774325E-02   3.12351396774325E-02
      0.00000000000000E+00   0.00000000000000E+00  -2.38779602935422E-18   3.44296707259183E-20  -2.35336635862830E-18
      7.78500172760116E-16  -5.00000000000000E-01  -5.00000000000000E-01   0.00000000000000E+00   0.00000000000000E+00
      0.00000000000000E+00   0.00000000000000E+00   0.00000000000000E+00  -3.98661292078215E-16
      3.81834417327754E-02
      0.00000000000000E+00   0.00000000000000E+00   0.00000000000000E+00   0.00000000000000E+00  -2.44627125081144E-18
     -3.66444778936671E-22  -2.44663769559037E-18   5.89363292984543E-16   3.81834417327754E-02   3.81834417327754E-02
      0.00000000000000E+00   0.00000000000000E+00   5.79458617388488E-18   3.79332769673313E-20   5.83251945085221E-18
      7.82772025244440E-16  -5.00000000000000E-01  -5.00000000000000E-01   0.00000000000000E+00   0.00000000000000E+00
      0.00000000000000E+00   0.00000000000000E+00   0.00000000000000E+00  -3.99815361218913E-16
      4.64287601717824E-02
      0.00000000000000E+00   0.00000000000000E+00   0.00000000000000E+00   0.00000000000000E+00  -2.79577580588405E-18
     -4.34968949956632E-22  -2.79621077483401E-18   5.89347538480542E-16   4.64287601717824E-02   4.64287601717824E-02
      0.00000000000000E+00   0.00000000000000E+00   6.85918204422906E-19   4.10537594855068E-20   7.26971963908412E-19
      7.87836965996219E-16  -5.00000000000000E-01  -5.00000000000000E-01   0.00000000000000E+00   0.00000000000000E+00
      0.00000000000000E+00   0.00000000000000E+00   0.00000000000000E+00  -4.01184991488543E-16
      5.62132047194040E-02
      0.00000000000000E+00   0.00000000000000E+00   0.00000000000000E+00   0.00000000000000E+00  -4.89244812595976E-18
     -5.17395002543279E-22  -4.89296552096230E-18   5.89328616409563E-16   5.62132047194040E-02   5.62132047194040E-02
      0.00000000000000E+00   0.00000000000000E+00   1.02037837387022E-18   4.36921837862704E-20   1.06407055765649E-18
      7.93840845906730E-16  -5.00000000000000E-01  -5.00000000000000E-01   0.00000000000000E+00   0.00000000000000E+00
      0.00000000000000E+00   0.00000000000000E+00   0.00000000000000E+00  -4.02811368246502E-16
      6.78240789159150E-02
      0.00000000000000E+00   0.00000000000000E+00   0.00000000000000E+00   0.00000000000000E+00   3.84337733817414E-18
     -6.20074557992146E-22   3.84275726361615E-18   5.89305089099361E-16   6.78240789159150E-02   6.78240789159150E-02
      0.00000000000000E+00   0.00000000000000E+00   5.69511767545315E-18   4.57926157658596E-20   5.74091029121901E-18
      8.00955654147408E-16  -5.00000000000000E-01  -5.00000000000000E-01   0.00000000000000E+00   0.00000000000000E+00
      0.00000000000000E+00   0.00000000000000E+00   0.00000000000000E+00  -4.04744154344786E-16
      8.14475046398212E-02
      0.00000000000000E+00   0.00000000000000E+00   0.00000000000000E+00   0.00000000000000E+00   2.09625276528424E-18
     -7.52147995464108E-22   2.09550061728878E-18   5.89274899219968E-16   8.14475046398212E-02   8.14475046398212E-02
      0.00000000000000E+00   0.00000000000000E+00   2.33673243154647E-18   4.73407208079067E-20   2.38407315235438E-18
      8.09289226658950E-16  -5.00000000000000E-01  -5.00000000000000E-01   0.00000000000000E+00   0.00000000000000E+00
      0.00000000000000E+00   0.00000000000000E+00   0.00000000000000E+00  -4.07017739355923E-16
      9.74323241558711E-02
      0.00000000000000E+00   0.00000000000000E+00   0.00000000000000E+00   0.00000000000000E+00  -5.24266095156633E-18
     -9.30474992992417E-22  -5.24359142655932E-18   5.89234265612345E-16   9.74323241558711E-02   9.74323241558711E-02
      0.00000000000000E+00   0.00000000000000E+00   2.97594960426378E-18   4.84066759362322E-20   3.02435628020001E-18
      8.19045948619538E-16  -5.00000000000000E-01  -5.00000000000000E-01   0.00000000000000E+00   0.00000000000000E+00
      0.00000000000000E+00   0.00000000000000E+00   0.00000000000000E+00  -4.09696196791643E-16
      1.16187845721370E-01
      0.00000000000000E+00   0.00000000000000E+00   0.00000000000000E+00   0.00000000000000E+00  -6.29165096504048E-18
     -1.18391936175447E-21  -6.29283488440223E-18   5.89176768059422E-16   1.16187845721370E-01   1.16187845721370E-01
      0.00000000000000E+00   0.00000000000000E+00   2.30117236084809E-18   4.90943827486513E-20   2.35026674359674E-18
      8.30462068455319E-16  -5.00000000000000E-01  -5.00000000000000E-01   0.00000000000000E+00   0.00000000000000E+00
      0.00000000000000E+00   0.00000000000000E+00   0.00000000000000E+00  -4.12858296391915E-16
      1.38194324358221E-01
      0.00000000000000E+00   0.00000000000000E+00   0.00000000000000E+00   0.00000000000000E+00  -2.79696654107712E-18
     -1.56343829684957E-21  -2.79852997937397E-18   5.89091212796746E-16   1.38194324358221E-01   1.38194324358221E-01
      0.00000000000000E+00   0.00000000000000E+00   2.92479238345660E-18   4.95194806419820E-20   2.97431186409858E-18
      8.43808851458471E-16  -5.00000000000000E-01  -5.00000000000000E-01   0.00000000000000E+00   0.00000000000000E+00
      0.00000000000000E+00   0.00000000000000E+00   0.00000000000000E+00  -4.16603025867579E-16
      1.64015259292127E-01
      0.00000000000000E+00   0.00000000000000E+00   0.00000000000000E+00   0.00000000000000E+00   3.49560338763583E-18
     -2.16255803510131E-21   3.49344082960073E-18   5.88957450609693E-16   1.64015259292127E-01   1.64015259292127E-01
      0.00000000000000E+00   0.00000000000000E+00   2.58631696203414E-18   4.97873022867845E-20   2.63610426432092E-18
      8.59394206905844E-16  -5.00000000000000E-01  -5.00000000000000E-01   0.00000000000000E+00   0.00000000000000E+00
      0.00000000000000E+00   0.00000000000000E+00   0.00000000000000E+00  -4.21059026358088E-16
      1.94311822947910E-01
      0.00000000000000E+00   0.00000000000000E+00   0.00000000000000E+00   0.00000000000000E+00  -4.54725897541011E-18
     -3.16024764482570E-21  -4.55041922305494E-18   5.88738121508012E-16   1.94311822947910E-01   1.94311822947910E-01
      0.00000000000000E+00   0.00000000000000E+00  -2.38899194491060E-18   4.99778451883236E-20  -2.33901409972227E-18
      8.77560587742133E-16  -5.00000000000000E-01  -5.00000000000000E-01   0.00000000000000E+00   0.00000000000000E+00
      0.00000000000000E+00   0.00000000000000E+00   0.00000000000000E+00  -4.26401548685949E-16
      2.29859790970696E-01
      0.00000000000000E+00   0.00000000000000E+00   0.00000000000000E+00   0.00000000000000E+00  -3.50800191914819E-19
     -4.91028943971177E-21  -3.55710481354531E-19   5.88363258096986E-16   2.29859790970696E-01   2.29859790970696E-01
      0.00000000000000E+00   0.00000000000000E+00   1.07585061171277E-18   5.01414208637957E-20   1.12599203257656E-18
      8.98675729150371E-16  -5.00000000000000E-01  -5.00000000000000E-01   0.00000000000000E+00   0.00000000000000E+00
      0.00000000000000E+00   0.00000000000000E+00   0.00000000000000E+00  -4.32882328951436E-16
      2.71095433877127E-01
      0.00000000000000E+00   0.00000000000000E+00   0.00000000000000E+00   0.00000000000000E+00  -1.05196696026643E-18
     -8.06109643843995E-21  -1.06002805670487E-18   5.87717750202919E-16   2.71095433877127E-01   2.71095433877127E-01
      0.00000000000000E+00   0.00000000000000E+00   1.01227490779365E-17   5.03017954549629E-20   1.01730508733915E-17
      9.22841083956969E-16  -5.00000000000000E-01  -5.00000000000000E-01   0.00000000000000E+00   0.00000000000000E+00
      0.00000000000000E+00   0.00000000000000E+00   0.00000000000000E+00  -4.40776905512518E-16
      3.18928779648587E-01
      0.00000000000000E+00   0.00000000000000E+00   0.00000000000000E+00   0.00000000000000E+00  -1.50874928227727E-17
     -1.37692699595409E-20  -1.51012620927323E-17   5.86633385938321E-16   3.18928779648587E-01   3.18928779648587E-01
      0.00000000000000E+00   0.00000000000000E+00   2.81682041635194E-18   5.04686777539838E-20   2.86728909410592E-18
      9.50366789370428E-16  -5.00000000000000E-01  -5.00000000000000E-01   0.00000000000000E+00   0.00000000000000E+00
      0.00000000000000E+00   0.00000000000000E+00   0.00000000000000E+00  -4.50530839753471E-16
      3.74415460743480E-01
      0.00000000000000E+00   0.00000000000000E+00   0.00000000000000E+00   0.00000000000000E+00  -1.65332291694275E-17
     -2.37919301880956E-20  -1.65570210996156E-17   5.84946474432143E-16   3.74415460743480E-01   3.74415460743480E-01
      0.00000000000000E+00   0.00000000000000E+00   2.29703841544232E-17   5.06442336682538E-20   2.30210283880914E-17
      9.81609015867990E-16  -5.00000000000000E-01  -5.00000000000000E-01   0.00000000000000E+00   0.00000000000000E+00
      0.00000000000000E+00   0.00000000000000E+00   0.00000000000000E+00  -4.62603301856554E-16
      4.38780010813557E-01
      0.00000000000000E+00   0.00000000000000E+00   0.00000000000000E+00   0.00000000000000E+00  -2.61191686415981E-17
     -3.97855867335827E-20  -2.61589542283317E-17   5.82680972988457E-16   4.38780010813557E-01   4.38780010813557E-01
      0.00000000000000E+00   0.00000000000000E+00   2.50086253027684E-17   5.08286442452816E-20   2.50594539470137E-17
      1.01711171803430E-15  -5.00000000000000E-01  -5.00000000000000E-01   0.00000000000000E+00   0.00000000000000E+00
      0.00000000000000E+00   0.00000000000000E+00   0.00000000000000E+00  -4.77147857582932E-16
      5.13442888894846E-01
      0.00000000000000E+00   0.00000000000000E+00   0.00000000000000E+00   0.00000000000000E+00  -4.92406452433309E-17
     -6.10333281929791E-20  -4.93016785715239E-17   5.80229113308037E-16   5.13442888894846E-01   5.13442888894846E-01
      0.00000000000000E+00   0.00000000000000E+00   3.81578846803210E-17   5.10214384428568E-20   3.82089061187639E-17
      1.05764443891851E-15  -5.00000000000000E-01  -5.00000000000000E-01   0.00000000000000E+00   0.00000000000000E+00
      0.00000000000000E+00   0.00000000000000E+00   0.00000000000000E+00  -4.93700198955772E-16
      6.00051827469141E-01
      0.00000000000000E+00   0.00000000000000E+00   0.00000000000000E+00   0.00000000000000E+00  -6.54357608774868E-17
     -8.88792101014799E-20  -6.55246400875883E-17   5.77646356638051E-16   6.00051827469141E-01   6.00051827469141E-01
      0.00000000000000E+00   0.00000000000000E+00   5.54866508516556E-17   5.12142674317429E-20   5.55378651190873E-17
      1.10318358837785E-15  -5.00000000000000E-01  -5.00000000000000E-01   0.00000000000000E+00   0.00000000000000E+00
      0.00000000000000E+00   0.00000000000000E+00   0.00000000000000E+00  -5.12430168699709E-16
      7.01672982062981E-01
      0.00000000000000E+00   0.00000000000000E+00   0.00000000000000E+00   0.00000000000000E+00  -1.07460235405767E-16
     -1.59891863683239E-19  -1.07620127269450E-16   5.72878156980850E-16   7.01672982062981E-01   7.01672982062981E-01
      0.00000000000000E+00   0.00000000000000E+00   1.08623359533709E-16   5.13844894508036E-20   1.08674744023160E-16
      1.15164235326709E-15  -5.00000000000000E-01  -5.00000000000000E-01   0.00000000000000E+00   0.00000000000000E+00
      0.00000000000000E+00   0.00000000000000E+00   0.00000000000000E+00  -5.37441397136267E-16
      8.19553521391834E-01
      0.00000000000000E+00   0.00000000000000E+00   0.00000000000000E+00   0.00000000000000E+00  -2.56501279614620E-16
     -4.18939354357420E-19  -2.56920218968978E-16   5.63578354571580E-16   8.19553521391834E-01   8.19553521391834E-01
      0.00000000000000E+00   0.00000000000000E+00   2.63006301687699E-16   5.15197520795708E-20   2.63057821439779E-16
      1.20052919632603E-15  -5.00000000000000E-01  -5.00000000000000E-01   0.00000000000000E+00   0.00000000000000E+00
      0.00000000000000E+00   0.00000000000000E+00   0.00000000000000E+00  -5.73027342608333E-16
      9.56294947013305E-01
      0.00000000000000E+00   0.00000000000000E+00   0.00000000000000E+00   0.00000000000000E+00  -4.17764501004667E-16
     -7.86809190085607E-19  -4.18551310194752E-16   5.56854175583856E-16   9.56294947013305E-01   9.56294947013305E-01
      0.00000000000000E+00   0.00000000000000E+00   4.25175205141437E-16   5.16602349601754E-20   4.25226865376398E-16
      1.25670624807111E-15  -5.00000000000000E-01  -5.00000000000000E-01   0.00000000000000E+00   0.00000000000000E+00
      0.00000000000000E+00   0.00000000000000E+00   0.00000000000000E+00  -6.07119932982942E-16
      1.00000000000000E+00
      0.00000000000000E+00   0.00000000000000E+00   0.00000000000000E+00   0.00000000000000E+00  -4.48031317155306E-16
     -8.43771004263741E-19  -4.48875088159569E-16   5.56087903645568E-16   1.00000000000000E+00   1.00000000000000E+00
      0.00000000000000E+00   0.00000000000000E+00   4.50485834869569E-16   5.17055696640132E-20   4.50537540439232E-16
      1.27514192975079E-15  -5.00000000000000E-01  -5.00000000000000E-01   0.00000000000000E+00   0.00000000000000E+00
      0.00000000000000E+00   0.00000000000000E+00   0.00000000000000E+00  -6.15589521846624E-16
      0.00000000000000E+00
      0.00000000000000E+00   0.00000000000000E+00   0.00000000000000E+00   0.00000000000000E+00  -4.48031293218148E-16
     -8.43768490666993E-19  -4.48875061708815E-16   5.56087936375189E-16   1.00000000000000E+00   1.00000000000000E+00
      0.00000000000000E+00   0.00000000000000E+00   4.50955927721679E-16   5.17055697417657E-20   4.51007633291421E-16
      1.27514194930351E-15  -5.00000000000000E-01  -5.00000000000000E-01   0.00000000000000E+00   0.00000000000000E+00
      0.00000000000000E+00   0.00000000000000E+00   0.00000000000000E+00  -6.15589464765152E-16
      1.00000000000000E-03
      0.00000000000000E+00   0.00000000000000E+00   0.00000000000000E+00   0.00000000000000E+00  -4.49472644508299E-16
     -8.40621788397542E-19  -4.50313266296696E-16   5.56024631865321E-16   1.00000000000000E+00   1.00000000000000E+00
      0.00000000000000E+00   0.00000000000000E+00   4.51665502369812E-16   5.17056631066602E-20   4.51717208032919E-16
      1.27483976552567E-15  -4.98000000000000E-01  -4.98000000000000E-01   0.00000000000000E+00   0.00000000000000E+00
      0.00000000000000E+00   0.00000000000000E+00   0.00000000000000E+00  -6.13526038540576E-16
      2.16000000000000E-03
      0.00000000000000E+00   0.00000000000000E+00   0.00000000000000E+00   0.00000000000000E+00  -4.41355664919018E-16
     -8.37032144961894E-19  -4.42192697063980E-16   5.55950425633780E-16   1.00000000000000E+00   1.00000000000000E+00
      0.00000000000000E+00   0.00000000000000E+00   4.46029714260529E-16   5.17057699374887E-20   4.46081420030466E-16
      1.27448853857656E-15  -4.95680000000000E-01  -4.95680000000000E-01   0.00000000000000E+00   0.00000000000000E+00
      0.00000000000000E+00   0.00000000000000E+00   0.00000000000000E+00  -6.11135944364282E-16
      3.53653333333333E-03
      0.00000000000000E+00   0.00000000000000E+00   0.00000000000000E+00   0.00000000000000E+00  -4.44624811090709E-16
     -8.32852729358880E-19  -4.45457663820068E-16   5.55861331703068E-16   1.00000000000000E+00   1.00000000000000E+00
      0.00000000000000E+00   0.00000000000000E+00   4.41100106319011E-16   5.17058947579136E-20   4.41151812213769E-16
      1.27407080224634E-15  -4.92926933333333E-01  -4.92926933333333E-01   0.00000000000000E+00   0.00000000000000E+00
      0.00000000000000E+00   0.00000000000000E+00   0.00000000000000E+00  -6.08304517267582E-16
      5.17001955555556E-03
      0.00000000000000E+00   0.00000000000000E+00   0.00000000000000E+00   0.00000000000000E+00  -4.46050088771775E-16
     -8.28004631210059E-19  -4.46878093402985E-16   5.55754150182561E-16   1.00000000000000E+00   1.00000000000000E+00
      0.00000000000000E+00   0.00000000000000E+00   4.49333041374100E-16   5.17060401367581E-20   4.49384747414236E-16
      1.27357374795108E-15  -4.89659960888889E-01  -4.89659960888889E-01   0.00000000000000E+00   0.00000000000000E+00
      0.00000000000000E+00   0.00000000000000E+00   0.00000000000000E+00  -6.04951405661763E-16
      7.10842320592592E-03
      0.00000000000000E+00   0.00000000000000E+00   0.00000000000000E+00   0.00000000000000E+00  -4.44161718744279E-16
     -8.22405169881881E-19  -4.44984123914161E-16   5.55624923305625E-16   1.00000000000000E+00   1.00000000000000E+00
      0.00000000000000E+00   0.00000000000000E+00   4.45580721815239E-16   5.17062088295010E-20   4.45632428024068E-16
      1.27298201691474E-15  -4.85783153588148E-01  -4.85783153588148E-01   0.00000000000000E+00   0.00000000000000E+00
      0.00000000000000E+00   0.00000000000000E+00   0.00000000000000E+00  -6.00982114638150E-16
      9.40866220436543E-03
      0.00000000000000E+00   0.00000000000000E+00   0.00000000000000E+00   0.00000000000000E+00  -4.50346377873471E-16
     -8.15970495166120E-19  -4.51162348368638E-16   5.55468736724478E-16   1.00000000000000E+00   1.00000000000000E+00
      0.00000000000000E+00   0.00000000000000E+00   4.43239881853978E-16   5.17064037157635E-20   4.43291588257694E-16
      1.27227716064155E-15  -4.81182675591269E-01  -4.81182675591269E-01   0.00000000000000E+00   0.00000000000000E+00
      0.00000000000000E+00   0.00000000000000E+00   0.00000000000000E+00  -5.96285732929779E-16
      1.21382791491803E-02
      0.00000000000000E+00   0.00000000000000E+00   0.00000000000000E+00   0.00000000000000E+00  -4.51011477765390E-16
     -8.08621362988570E-19  -4.51820099128378E-16   5.55279438122595E-16   1.00000000000000E+00   1.00000000000000E+00
      0.00000000000000E+00   0.00000000000000E+00   4.53825398271200E-16   5.17066276347980E-20   4.53877104898835E-16
      1.27143695944495E-15  -4.75723441701639E-01  -4.75723441701639E-01   0.00000000000000E+00   0.00000000000000E+00
      0.00000000000000E+00   0.00000000000000E+00   0.00000000000000E+00  -5.90732445961174E-16
      1.53774245903606E-02
      0.00000000000000E+00   0.00000000000000E+00   0.00000000000000E+00   0.00000000000000E+00  -4.44322747869866E-16
     -8.00289751040589E-19  -4.45123037620907E-16   5.55049290051139E-16   1.00000000000000E+00   1.00000000000000E+00
      0.00000000000000E+00   0.00000000000000E+00   4.47962197477187E-16   5.17068831863651E-20   4.48013904360374E-16
      1.27043458505752E-15  -4.69245150819279E-01  -4.69245150819279E-01   0.00000000000000E+00   0.00000000000000E+00
      0.00000000000000E+00   0.00000000000000E+00   0.00000000000000E+00  -5.84170807626321E-16
      1.92212105138946E-02
      0.00000000000000E+00   0.00000000000000E+00   0.00000000000000E+00   0.00000000000000E+00  -4.50474691336583E-16
     -7.90928147254505E-19  -4.51265619483838E-16   5.54768512416946E-16   1.00000000000000E+00   1.00000000000000E+00
      0.00000000000000E+00   0.00000000000000E+00   4.47740325469700E-16   5.17071724293308E-20   4.47792032642130E-16
      1.26923754928511E-15  -4.61557578972211E-01  -4.61557578972211E-01   0.00000000000000E+00   0.00000000000000E+00
      0.00000000000000E+00   0.00000000000000E+00   0.00000000000000E+00  -5.76424887788144E-16
      2.37825031431549E-02
      0.00000000000000E+00   0.00000000000000E+00   0.00000000000000E+00   0.00000000000000E+00  -4.47070228629088E-16
     -7.80529263695432E-19  -4.47850757892784E-16   5.54424576411382E-16   1.00000000000000E+00   1.00000000000000E+00
      0.00000000000000E+00   0.00000000000000E+00   4.47754738257616E-16   5.17074962046875E-20   4.47806445753820E-16
      1.26780631618387E-15  -4.52434993713690E-01  -4.52434993713690E-01   0.00000000000000E+00   0.00000000000000E+00
      0.00000000000000E+00   0.00000000000000E+00   0.00000000000000E+00  -5.67291633823293E-16
      2.91344198281537E-02
      0.00000000000000E+00   0.00000000000000E+00   0.00000000000000E+00   0.00000000000000E+00  -4.41822814868749E-16
     -7.69253590848904E-19  -4.42592068459597E-16   5.54006393057563E-16   1.00000000000000E+00   1.00000000000000E+00
      0.00000000000000E+00   0.00000000000000E+00   4.51764198803798E-16   5.17078500239017E-20   4.51815906653822E-16
      1.26611205260678E-15  -4.41731160343693E-01  -4.41731160343693E-01   0.00000000000000E+00   0.00000000000000E+00
      0.00000000000000E+00   0.00000000000000E+00   0.00000000000000E+00  -5.56658445332014E-16
      3.54140020718856E-02
      0.00000000000000E+00   0.00000000000000E+00   0.00000000000000E+00   0.00000000000000E+00  -4.46473876013452E-16
     -7.57235622320229E-19  -4.47231111635773E-16   5.53495592037018E-16   1.00000000000000E+00   1.00000000000000E+00
      0.00000000000000E+00   0.00000000000000E+00   4.48255972975985E-16   5.17082298300614E-20   4.48307681205815E-16
      1.26410326010899E-15  -4.29171995856229E-01  -4.29171995856229E-01   0.00000000000000E+00   0.00000000000000E+00
      0.00000000000000E+00   0.00000000000000E+00   0.00000000000000E+00  -5.44300622704115E-16
      4.27820452378644E-02
      0.00000000000000E+00   0.00000000000000E+00   0.00000000000000E+00   0.00000000000000E+00  -4.54049452807040E-16
     -7.44717697256006E-19  -4.54794170504296E-16   5.52868402561467E-16   1.00000000000000E+00   1.00000000000000E+00
      0.00000000000000E+00   0.00000000000000E+00   4.45452982262035E-16   5.17086275083808E-20   4.45504690889543E-16
      1.26171719565240E-15  -4.14435909524271E-01  -4.14435909524271E-01   0.00000000000000E+00   0.00000000000000E+00
      0.00000000000000E+00   0.00000000000000E+00   0.00000000000000E+00  -5.29970153908777E-16
      5.14272158859461E-02
      0.00000000000000E+00   0.00000000000000E+00   0.00000000000000E+00   0.00000000000000E+00  -4.50618965298913E-16
     -7.32112010601347E-19  -4.51351077309514E-16   5.52093438730654E-16   1.00000000000000E+00   1.00000000000000E+00