DF-ISE text

Info {
  version   = 1.0
  type      = xyplot
  datasets  = [
    "time"
    "S OuterVoltage" "S InnerVoltage" "S QuasiFermiPotential" "S DisplacementCurrent" "S eCurrent"
    "S hCurrent" "S TotalCurrent" "S Charge" "D OuterVoltage" "D InnerVoltage"
    "D QuasiFermiPotential" "D DisplacementCurrent" "D eCurrent" "D hCurrent" "D TotalCurrent"
    "D Charge" "G OuterVoltage" "G InnerVoltage" "G QuasiFermiPotential" "G DisplacementCurrent"
    "G eCurrent" "G hCurrent" "G TotalCurrent" "G Charge" ]
  functions = [
    Time
    OuterVoltage InnerVoltage QuasiFermiPotential DisplacementCurrent eCurrent
    hCurrent TotalCurrent Charge OuterVoltage InnerVoltage
    QuasiFermiPotential DisplacementCurrent eCurrent hCurrent TotalCurrent
    Charge OuterVoltage InnerVoltage QuasiFermiPotential DisplacementCurrent
    eCurrent hCurrent TotalCurrent Charge ]
}

Data {
      0.00000000000000E+00
      0.00000000000000E+00   0.00000000000000E+00   0.00000000000000E+00   0.00000000000000E+00  -1.94364238985995E-20
     -4.10850002692931E-35  -1.94364238985995E-20   4.95459782563096E-16   0.00000000000000E+00   0.00000000000000E+00
      0.00000000000000E+00   0.00000000000000E+00   1.07872451362289E-18   1.91555335455398E-35   1.07872451362289E-18
      5.83543057736740E-16  -5.00000000000000E-01  -5.00000000000000E-01   0.00000000000000E+00   0.00000000000000E+00
      0.00000000000000E+00   0.00000000000000E+00   0.00000000000000E+00  -3.32368723130900E-16
      0.00000000000000E+00
      0.00000000000000E+00   0.00000000000000E+00   0.00000000000000E+00   0.00000000000000E+00  -1.35562709281423E-18
      7.77481266170882E-31  -1.35562709281345E-18   4.95459782148718E-16   0.00000000000000E+00   0.00000000000000E+00
      0.00000000000000E+00   0.00000000000000E+00  -5.55360616968576E-19   7.77139347691936E-31  -5.55360616967799E-19
      5.83543057123415E-16  -5.00000000000000E-01  -5.00000000000000E-01   0.00000000000000E+00   0.00000000000000E+00
      0.00000000000000E+00   0.00000000000000E+00   0.00000000000000E+00  -3.32368723134704E-16
      1.00000000000000E-03
      0.00000000000000E+00   0.00000000000000E+00   0.00000000000000E+00   0.00000000000000E+00   4.62313584909979E-19
     -2.14656840538943E-22   4.62098928069440E-19   4.95398154710402E-16   1.00000000000000E-03   1.00000000000000E-03
      0.00000000000000E+00   0.00000000000000E+00  -2.19821381161800E-19   6.20752061743341E-22  -2.19200629100057E-19
      5.83787606774763E-16  -5.00000000000000E-01  -5.00000000000000E-01   0.00000000000000E+00   0.00000000000000E+00
      0.00000000000000E+00   0.00000000000000E+00   0.00000000000000E+00  -3.32654523478115E-16
      2.17333333333333E-03
      0.00000000000000E+00   0.00000000000000E+00   0.00000000000000E+00   0.00000000000000E+00  -3.01816668904770E-18
     -4.65884225128191E-22  -3.01863257327283E-18   4.95326664789504E-16   2.17333333333333E-03   2.17333333333333E-03
      0.00000000000000E+00   0.00000000000000E+00   5.25187082576832E-18   1.32957197944691E-21   5.25320039774777E-18
      5.84075070476684E-16  -5.00000000000000E-01  -5.00000000000000E-01   0.00000000000000E+00   0.00000000000000E+00
      0.00000000000000E+00   0.00000000000000E+00   0.00000000000000E+00  -3.32986842352283E-16
      3.56568888888889E-03
      0.00000000000000E+00   0.00000000000000E+00   0.00000000000000E+00   0.00000000000000E+00   8.65805876169388E-18
     -7.63087141720875E-22   8.65729567455216E-18   4.95242956964658E-16   3.56568888888889E-03   3.56568888888889E-03
      0.00000000000000E+00   0.00000000000000E+00   6.08692011688980E-20   2.14386682480846E-21   6.30130679937065E-20
      5.84416903693082E-16  -5.00000000000000E-01  -5.00000000000000E-01   0.00000000000000E+00   0.00000000000000E+00
      0.00000000000000E+00   0.00000000000000E+00   0.00000000000000E+00  -3.33377042769707E-16
      5.21795081481481E-03
      0.00000000000000E+00   0.00000000000000E+00   0.00000000000000E+00   0.00000000000000E+00  -6.63607147347836E-18
     -1.11443290147088E-21  -6.63718590637983E-18   4.95145174922020E-16   5.21795081481481E-03   5.21795081481481E-03
      0.00000000000000E+00   0.00000000000000E+00   5.57020641447022E-18   3.07326169234672E-21   5.57327967616256E-18
      5.84823501270246E-16  -5.00000000000000E-01  -5.00000000000000E-01   0.00000000000000E+00   0.00000000000000E+00
      0.00000000000000E+00   0.00000000000000E+00   0.00000000000000E+00  -3.33834367713185E-16
      7.17863496691358E-03
      0.00000000000000E+00   0.00000000000000E+00   0.00000000000000E+00   0.00000000000000E+00   7.30315821422868E-19
     -1.52942905111258E-21   7.28786392371755E-19   4.95031265412961E-16   7.17863496691358E-03   7.17863496691358E-03
      0.00000000000000E+00   0.00000000000000E+00   4.09582811380543E-18   4.12568910003583E-21   4.09995380290547E-18
      5.85307270480890E-16  -5.00000000000000E-01  -5.00000000000000E-01   0.00000000000000E+00   0.00000000000000E+00
      0.00000000000000E+00   0.00000000000000E+00   0.00000000000000E+00  -3.34369235932402E-16
      9.50531349407078E-03
      0.00000000000000E+00   0.00000000000000E+00   0.00000000000000E+00   0.00000000000000E+00  -3.36512717686971E-18
     -2.01910212133787E-21  -3.36714627899105E-18   4.94898985851868E-16   9.50531349407078E-03   9.50531349407078E-03
      0.00000000000000E+00   0.00000000000000E+00   1.04241146591674E-18   5.30605696629205E-21   1.04771752288304E-18
      5.85883017163454E-16  -5.00000000000000E-01  -5.00000000000000E-01   0.00000000000000E+00   0.00000000000000E+00
      0.00000000000000E+00   0.00000000000000E+00   0.00000000000000E+00  -3.34993298544523E-16
      1.22663053462973E-02
      0.00000000000000E+00   0.00000000000000E+00   0.00000000000000E+00   0.00000000000000E+00  -3.16491190835013E-18
     -2.59618557461913E-21  -3.16750809392475E-18   4.94745922342815E-16   1.22663053462973E-02   1.22663053462973E-02
      0.00000000000000E+00   0.00000000000000E+00   4.98954085125115E-19   6.61452129423841E-21   5.05568606419353E-19
      5.86568398291113E-16  -5.00000000000000E-01  -5.00000000000000E-01   0.00000000000000E+00   0.00000000000000E+00
      0.00000000000000E+00   0.00000000000000E+00   0.00000000000000E+00  -3.35719473069769E-16
      1.55426823442728E-02
      0.00000000000000E+00   0.00000000000000E+00   0.00000000000000E+00   0.00000000000000E+00  -1.48564218437110E-17
     -3.27533491895475E-21  -1.48596971786299E-17   4.94569514479216E-16   1.55426823442728E-02   1.55426823442728E-02
      0.00000000000000E+00   0.00000000000000E+00   1.24444975590024E-17   8.04437302779360E-21   1.24525419320302E-17
      5.87384442280798E-16  -5.00000000000000E-01  -5.00000000000000E-01   0.00000000000000E+00   0.00000000000000E+00
      0.00000000000000E+00   0.00000000000000E+00   0.00000000000000E+00  -3.36561970497089E-16
      1.94306497152037E-02
      0.00000000000000E+00   0.00000000000000E+00   0.00000000000000E+00   0.00000000000000E+00  -1.60739155087122E-17
     -4.07340476610674E-21  -1.60779889134783E-17   4.94367079324867E-16   1.94306497152037E-02   1.94306497152037E-02
      0.00000000000000E+00   0.00000000000000E+00   1.88170384560915E-17   9.57966259288541E-21   1.88266181186844E-17
      5.88356133812610E-16  -5.00000000000000E-01  -5.00000000000000E-01   0.00000000000000E+00   0.00000000000000E+00
      0.00000000000000E+00   0.00000000000000E+00   0.00000000000000E+00  -3.37536345323505E-16
      2.40443709953751E-02
      0.00000000000000E+00   0.00000000000000E+00   0.00000000000000E+00   0.00000000000000E+00  -1.14256302647092E-17
     -5.00986732482574E-21  -1.14306401320340E-17   4.94135818131336E-16   2.40443709953751E-02   2.40443709953751E-02
      0.00000000000000E+00   0.00000000000000E+00   1.88797950517073E-17   1.11928627852043E-20   1.88909879144925E-17
      5.89513050916384E-16  -5.00000000000000E-01  -5.00000000000000E-01   0.00000000000000E+00   0.00000000000000E+00
      0.00000000000000E+00   0.00000000000000E+00   0.00000000000000E+00  -3.38659630214799E-16
      2.95193202478451E-02
      0.00000000000000E+00   0.00000000000000E+00   0.00000000000000E+00   0.00000000000000E+00  -2.33173079542313E-17
     -6.10759525553787E-21  -2.33234155494868E-17   4.93872763517521E-16   2.95193202478451E-02   2.95193202478451E-02
      0.00000000000000E+00   0.00000000000000E+00  -4.69559097988447E-19   1.28430897930306E-20  -4.56716008195416E-19
      5.90890019084666E-16  -5.00000000000000E-01  -5.00000000000000E-01   0.00000000000000E+00   0.00000000000000E+00
      0.00000000000000E+00   0.00000000000000E+00   0.00000000000000E+00  -3.39950708218618E-16
      3.60162600274429E-02
      0.00000000000000E+00   0.00000000000000E+00   0.00000000000000E+00   0.00000000000000E+00  -3.27502808533668E-17
     -7.39442351234779E-21  -3.27576752768791E-17   4.93574602119153E-16   3.60162600274429E-02   3.60162600274429E-02
      0.00000000000000E+00   0.00000000000000E+00   2.30524620073118E-17   1.44756558852304E-20   2.30669376631971E-17
      5.92527731152187E-16  -5.00000000000000E-01  -5.00000000000000E-01   0.00000000000000E+00   0.00000000000000E+00
      0.00000000000000E+00   0.00000000000000E+00   0.00000000000000E+00  -3.41431154417175E-16
      4.37259618992322E-02
      0.00000000000000E+00   0.00000000000000E+00   0.00000000000000E+00   0.00000000000000E+00  -1.57112499736776E-17
     -8.90636722306030E-21  -1.57201563409007E-17   4.93237253649567E-16   4.37259618992322E-02   4.37259618992322E-02
      0.00000000000000E+00   0.00000000000000E+00   2.84900763591612E-17   1.60237672138905E-20   2.85061001263751E-17
      5.94473246978526E-16  -5.00000000000000E-01  -5.00000000000000E-01   0.00000000000000E+00   0.00000000000000E+00
      0.00000000000000E+00   0.00000000000000E+00   0.00000000000000E+00  -3.43126966257063E-16
      5.28748081204222E-02
      0.00000000000000E+00   0.00000000000000E+00   0.00000000000000E+00   0.00000000000000E+00  -1.77537888271595E-17
     -1.06941396358527E-20  -1.77644829667954E-17   4.92855026783232E-16   5.28748081204222E-02   5.28748081204222E-02
      0.00000000000000E+00   0.00000000000000E+00   3.10664509757228E-17   1.74127203937593E-20   3.10838636961166E-17
      5.96780264602005E-16  -5.00000000000000E-01  -5.00000000000000E-01   0.00000000000000E+00   0.00000000000000E+00
      0.00000000000000E+00   0.00000000000000E+00   0.00000000000000E+00  -3.45071807084359E-16
      6.36094543532852E-02
      0.00000000000000E+00   0.00000000000000E+00   0.00000000000000E+00   0.00000000000000E+00  -3.91518544269527E-17
     -1.28117474065372E-20  -3.91646661743592E-17   4.92423905134362E-16   6.36094543532852E-02   6.36094543532852E-02
      0.00000000000000E+00   0.00000000000000E+00   3.36825887732396E-17   1.85550805449829E-20   3.37011438537846E-17
      5.99478451852040E-16  -5.00000000000000E-01  -5.00000000000000E-01   0.00000000000000E+00   0.00000000000000E+00
      0.00000000000000E+00   0.00000000000000E+00   0.00000000000000E+00  -3.47287803294866E-16
      7.62047725998443E-02
      0.00000000000000E+00   0.00000000000000E+00   0.00000000000000E+00   0.00000000000000E+00  -4.11774522889695E-17
     -1.53777662683870E-20  -4.11928300552378E-17   4.91930743231860E-16   7.62047725998443E-02   7.62047725998443E-02
      0.00000000000000E+00   0.00000000000000E+00   4.38291308483555E-17   1.93875746307846E-20   4.38485184229863E-17
      6.02623868072505E-16  -5.00000000000000E-01  -5.00000000000000E-01   0.00000000000000E+00   0.00000000000000E+00
      0.00000000000000E+00   0.00000000000000E+00   0.00000000000000E+00  -3.49836979264292E-16
      9.09832793424738E-02
      0.00000000000000E+00   0.00000000000000E+00   0.00000000000000E+00   0.00000000000000E+00  -3.82626105005271E-17
     -1.86008622048627E-20  -3.82812113627319E-17   4.91353492098395E-16   9.09832793424738E-02   9.09832793424738E-02
      0.00000000000000E+00   0.00000000000000E+00   3.94365478012086E-17   1.98546474302371E-20   3.94564024486389E-17
      6.06275612187521E-16  -5.00000000000000E-01  -5.00000000000000E-01   0.00000000000000E+00   0.00000000000000E+00
      0.00000000000000E+00   0.00000000000000E+00   0.00000000000000E+00  -3.52814655449613E-16
      1.08323393920492E-01
      0.00000000000000E+00   0.00000000000000E+00   0.00000000000000E+00   0.00000000000000E+00  -5.07168492439954E-17
     -2.28686488344024E-20  -5.07397178928298E-17   4.90654820764208E-16   1.08323393920492E-01   1.08323393920492E-01
      0.00000000000000E+00   0.00000000000000E+00   4.76725598126143E-17   1.99378008609945E-20   4.76924976134753E-17
      6.10493299886733E-16  -5.00000000000000E-01  -5.00000000000000E-01   0.00000000000000E+00   0.00000000000000E+00
      0.00000000000000E+00   0.00000000000000E+00   0.00000000000000E+00  -3.56371533554327E-16
      1.28669128358701E-01
      0.00000000000000E+00   0.00000000000000E+00   0.00000000000000E+00   0.00000000000000E+00  -5.25359129133507E-17
     -2.89529670270856E-20  -5.25648658803778E-17   4.89770112509007E-16   1.28669128358701E-01   1.28669128358701E-01
      0.00000000000000E+00   0.00000000000000E+00   5.61472298584399E-17   1.97057021019860E-20   5.61669355605419E-17
      6.15331502897719E-16  -5.00000000000000E-01  -5.00000000000000E-01   0.00000000000000E+00   0.00000000000000E+00
      0.00000000000000E+00   0.00000000000000E+00   0.00000000000000E+00  -3.60754727013833E-16
      1.52541456766199E-01
      0.00000000000000E+00   0.00000000000000E+00   0.00000000000000E+00   0.00000000000000E+00  -7.10672634608760E-17
     -3.85457731263541E-20  -7.11058092340023E-17   4.88583402537915E-16   1.52541456766199E-01   1.52541456766199E-01
      0.00000000000000E+00   0.00000000000000E+00   6.54332174859138E-17   1.92812758196052E-20   6.54524987617334E-17
      6.20827345970782E-16  -5.00000000000000E-01  -5.00000000000000E-01   0.00000000000000E+00   0.00000000000000E+00
      0.00000000000000E+00   0.00000000000000E+00   0.00000000000000E+00  -3.66389013773541E-16
      1.80551655430996E-01
      0.00000000000000E+00   0.00000000000000E+00   0.00000000000000E+00   0.00000000000000E+00  -1.07473790587307E-16
     -5.58381405810344E-20  -1.07529628727888E-16   4.86881086616206E-16   1.80551655430996E-01   1.80551655430996E-01
      0.00000000000000E+00   0.00000000000000E+00   9.39295036519100E-17   1.87745220557799E-20   9.39482781739658E-17
      6.26976140047371E-16  -5.00000000000000E-01  -5.00000000000000E-01   0.00000000000000E+00   0.00000000000000E+00
      0.00000000000000E+00   0.00000000000000E+00   0.00000000000000E+00  -3.74030346576513E-16
      2.13416955197692E-01
      0.00000000000000E+00   0.00000000000000E+00   0.00000000000000E+00   0.00000000000000E+00  -1.36678332898334E-16
     -9.27471128947071E-20  -1.36771080011229E-16   4.84285080790662E-16   2.13416955197692E-01   2.13416955197692E-01
      0.00000000000000E+00   0.00000000000000E+00   1.34859407321417E-16   1.82709433729884E-20   1.34877678264790E-16
      6.33700388047787E-16  -5.00000000000000E-01  -5.00000000000000E-01   0.00000000000000E+00   0.00000000000000E+00
      0.00000000000000E+00   0.00000000000000E+00   0.00000000000000E+00  -3.84977182066264E-16
      2.51540702927059E-01
      0.00000000000000E+00   0.00000000000000E+00   0.00000000000000E+00   0.00000000000000E+00  -1.97688080036252E-16
     -1.86365687761781E-19  -1.97874445724014E-16   4.80302640429486E-16   2.51540702927059E-01   2.51540702927059E-01
      0.00000000000000E+00   0.00000000000000E+00   2.06334402289860E-16   1.78455552137210E-20   2.06352247845073E-16
      6.40794872808089E-16  -5.00000000000000E-01  -5.00000000000000E-01   0.00000000000000E+00   0.00000000000000E+00
      0.00000000000000E+00   0.00000000000000E+00   0.00000000000000E+00  -4.00832575230473E-16
      2.95764250293125E-01
      0.00000000000000E+00   0.00000000000000E+00   0.00000000000000E+00   0.00000000000000E+00  -3.15125918474319E-16
     -4.58810271955331E-19  -3.15584728746274E-16   4.74636603653752E-16   2.95764250293125E-01   2.95764250293125E-01
      0.00000000000000E+00   0.00000000000000E+00   3.16152610193900E-16   1.75400941753141E-20   3.16170150288075E-16
      6.48329764859050E-16  -5.00000000000000E-01  -5.00000000000000E-01   0.00000000000000E+00   0.00000000000000E+00
      0.00000000000000E+00   0.00000000000000E+00   0.00000000000000E+00  -4.22467696093658E-16
      3.47063565237761E-01
      0.00000000000000E+00   0.00000000000000E+00   0.00000000000000E+00   0.00000000000000E+00  -5.23996051144656E-16
     -1.20749428460059E-18  -5.25203545429257E-16   4.68067461130574E-16   3.47063565237761E-01   3.47063565237761E-01
      0.00000000000000E+00   0.00000000000000E+00   5.46974711649442E-16   1.73960190377772E-20   5.46992107668479E-16
      6.57080515748140E-16  -5.00000000000000E-01  -5.00000000000000E-01   0.00000000000000E+00   0.00000000000000E+00
      0.00000000000000E+00   0.00000000000000E+00   0.00000000000000E+00  -4.47153519723757E-16
      4.06570770573539E-01
      0.00000000000000E+00   0.00000000000000E+00   0.00000000000000E+00   0.00000000000000E+00  -8.34794259067063E-16
     -2.59750387483736E-18  -8.37391762941900E-16   4.62507290369610E-16   4.06570770573539E-01   4.06570770573539E-01
      0.00000000000000E+00   0.00000000000000E+00   8.51002923389976E-16   1.75105330158302E-20   8.51020433922992E-16
      6.68435074687755E-16  -5.00000000000000E-01  -5.00000000000000E-01   0.00000000000000E+00   0.00000000000000E+00
      0.00000000000000E+00   0.00000000000000E+00   0.00000000000000E+00  -4.68649662565070E-16
      4.74805699358565E-01
      0.00000000000000E+00   0.00000000000000E+00   0.00000000000000E+00   0.00000000000000E+00  -1.20091871366981E-15
     -4.02333718432169E-18  -1.20494205085413E-15   4.59015809346648E-16   4.74805699358565E-01   4.74805699358565E-01
      0.00000000000000E+00   0.00000000000000E+00   1.21084296599778E-15   1.77602724995414E-20   1.21086072627027E-15
      6.82928715871430E-16  -5.00000000000000E-01  -5.00000000000000E-01   0.00000000000000E+00   0.00000000000000E+00
      0.00000000000000E+00   0.00000000000000E+00   0.00000000000000E+00  -4.83690167881148E-16
      5.53048417698728E-01
      0.00000000000000E+00   0.00000000000000E+00   0.00000000000000E+00   0.00000000000000E+00  -1.58343533992312E-15
     -4.93348303702035E-18  -1.58836882296014E-15   4.57008800949917E-16   5.53048417698728E-01   5.53048417698728E-01
      0.00000000000000E+00   0.00000000000000E+00   1.59091126574372E-15   1.79534992013126E-20   1.59092921924292E-15
      7.00261618783456E-16  -5.00000000000000E-01  -5.00000000000000E-01   0.00000000000000E+00   0.00000000000000E+00
      0.00000000000000E+00   0.00000000000000E+00   0.00000000000000E+00  -4.94353041345438E-16
      6.42766734728781E-01
      0.00000000000000E+00   0.00000000000000E+00   0.00000000000000E+00   0.00000000000000E+00  -2.18957598821312E-15
     -5.45201857771349E-18  -2.19502800679083E-15   4.55552463407277E-16   6.42766734728781E-01   6.42766734728781E-01
      0.00000000000000E+00   0.00000000000000E+00   2.18542784195727E-15   1.79839720370837E-20   2.18544582592931E-15
      7.20069071084834E-16  -5.00000000000000E-01  -5.00000000000000E-01   0.00000000000000E+00   0.00000000000000E+00
      0.00000000000000E+00   0.00000000000000E+00   0.00000000000000E+00  -5.03711482934700E-16
      7.44447494029508E-01
      0.00000000000000E+00   0.00000000000000E+00   0.00000000000000E+00   0.00000000000000E+00  -3.32590734162890E-15
     -5.88610560070604E-18  -3.33179344722961E-15   4.54025990018507E-16   7.44447494029508E-01   7.44447494029508E-01
      0.00000000000000E+00   0.00000000000000E+00   3.34218314935218E-15   1.79798440245139E-20   3.34220112919621E-15
      7.42050931667241E-16  -5.00000000000000E-01  -5.00000000000000E-01   0.00000000000000E+00   0.00000000000000E+00
      0.00000000000000E+00   0.00000000000000E+00   0.00000000000000E+00  -5.13671407310982E-16
      8.62397174818351E-01
      0.00000000000000E+00   0.00000000000000E+00   0.00000000000000E+00   0.00000000000000E+00  -5.82568700883614E-15
     -6.10530463384794E-18  -5.83179231346999E-15   4.52409039264651E-16   8.62397174818351E-01   8.62397174818351E-01
      0.00000000000000E+00   0.00000000000000E+00   5.81862345614623E-15   1.79904432658863E-20   5.81864144658950E-15
      7.67107098112192E-16  -5.00000000000000E-01  -5.00000000000000E-01   0.00000000000000E+00   0.00000000000000E+00
      0.00000000000000E+00   0.00000000000000E+00   0.00000000000000E+00  -5.24295551475012E-16
      9.97646142122892E-01
      0.00000000000000E+00   0.00000000000000E+00   0.00000000000000E+00   0.00000000000000E+00  -1.19514342627248E-14
     -5.97155626649125E-18  -1.19574058189913E-14   4.50659072077171E-16   9.97646142122892E-01   9.97646142122892E-01
      0.00000000000000E+00   0.00000000000000E+00   1.19658465698029E-14   1.80237417720372E-20   1.19658645935447E-14
      7.95389864253852E-16  -5.00000000000000E-01  -5.00000000000000E-01   0.00000000000000E+00   0.00000000000000E+00
      0.00000000000000E+00   0.00000000000000E+00   0.00000000000000E+00  -5.35347807037460E-16
      1.00000000000000E+00
      0.00000000000000E+00   0.00000000000000E+00   0.00000000000000E+00   0.00000000000000E+00  -1.21217323555336E-14
     -5.96682566914343E-18  -1.21276991812027E-14   4.50627836990328E-16   1.00000000000000E+00   1.00000000000000E+00
      0.00000000000000E+00   0.00000000000000E+00   1.21174285754637E-14   1.80243841474501E-20   1.21174465998479E-14
      7.95877944014912E-16  -5.00000000000000E-01  -5.00000000000000E-01   0.00000000000000E+00   0.00000000000000E+00
      0.00000000000000E+00   0.00000000000000E+00   0.00000000000000E+00  -5.35533563764159E-16
      0.00000000000000E+00
      0.00000000000000E+00   0.00000000000000E+00   0.00000000000000E+00   0.00000000000000E+00  -1.21129978690919E-14
     -5.96681717485317E-18  -1.21189646862668E-14   4.50627846154299E-16   1.00000000000000E+00   1.00000000000000E+00
      0.00000000000000E+00   0.00000000000000E+00   1.20986085631095E-14   1.80243841548598E-20   1.20986265874936E-14
      7.95877947859542E-16  -5.00000000000000E-01  -5.00000000000000E-01   0.00000000000000E+00   0.00000000000000E+00
      0.00000000000000E+00   0.00000000000000E+00   0.00000000000000E+00  -5.35533533594481E-16
      1.00000000000000E-03
      0.00000000000000E+00   0.00000000000000E+00   0.00000000000000E+00   0.00000000000000E+00  -1.20977023927326E-14
     -5.92731284884854E-18  -1.21036297055815E-14   4.50567095646758E-16   1.00000000000000E+00   1.00000000000000E+00
      0.00000000000000E+00   0.00000000000000E+00   1.21018913515210E-14   1.80243758604040E-20   1.21019093758968E-14
      7.95723844529004E-16  -4.98000000000000E-01  -4.98000000000000E-01   0.00000000000000E+00   0.00000000000000E+00
      0.00000000000000E+00   0.00000000000000E+00   0.00000000000000E+00  -5.33475097381089E-16
      2.16000000000000E-03
      0.00000000000000E+00   0.00000000000000E+00   0.00000000000000E+00   0.00000000000000E+00  -1.20907050932168E-14
     -5.88106010633928E-18  -1.20965861533231E-14   4.50497003032927E-16   1.00000000000000E+00   1.00000000000000E+00
      0.00000000000000E+00   0.00000000000000E+00   1.21073672563346E-14   1.80243667091453E-20   1.21073852807013E-14
      7.95545137218552E-16  -4.95680000000000E-01  -4.95680000000000E-01   0.00000000000000E+00   0.00000000000000E+00
      0.00000000000000E+00   0.00000000000000E+00   0.00000000000000E+00  -5.31086953854027E-16
      3.53653333333333E-03
      0.00000000000000E+00   0.00000000000000E+00   0.00000000000000E+00   0.00000000000000E+00  -1.20697668846350E-14
     -5.82555186732506E-18  -1.20755924365023E-14   4.50414404686787E-16   1.00000000000000E+00   1.00000000000000E+00
      0.00000000000000E+00   0.00000000000000E+00   1.20816316475073E-14   1.80243565438351E-20   1.20816496718638E-14
      7.95333167538764E-16  -4.92926933333333E-01  -4.92926933333333E-01   0.00000000000000E+00   0.00000000000000E+00
      0.00000000000000E+00   0.00000000000000E+00   0.00000000000000E+00  -5.28252374090400E-16
      5.17001955555556E-03
      0.00000000000000E+00   0.00000000000000E+00   0.00000000000000E+00   0.00000000000000E+00  -1.20470369097640E-14
     -5.75883043369821E-18  -1.20527957401977E-14   4.50317216693571E-16   1.00000000000000E+00   1.00000000000000E+00
      0.00000000000000E+00   0.00000000000000E+00   1.20528304014078E-14   1.80243454653621E-20   1.20528484257533E-14
      7.95081773888643E-16  -4.89659960888889E-01  -4.89659960888889E-01   0.00000000000000E+00   0.00000000000000E+00
      0.00000000000000E+00   0.00000000000000E+00   0.00000000000000E+00  -5.24887743584056E-16
      7.10842320592592E-03
      0.00000000000000E+00   0.00000000000000E+00   0.00000000000000E+00   0.00000000000000E+00  -1.20151394357186E-14
     -5.67847772979026E-18  -1.20208179134484E-14   4.50203097945538E-16   1.00000000000000E+00   1.00000000000000E+00
      0.00000000000000E+00   0.00000000000000E+00   1.19954847425173E-14   1.80243337323075E-20   1.19955027668510E-14
      7.94783676611688E-16  -4.85783153588148E-01  -4.85783153588148E-01   0.00000000000000E+00   0.00000000000000E+00
      0.00000000000000E+00   0.00000000000000E+00   0.00000000000000E+00  -5.20893655505988E-16
      9.40866220436543E-03
      0.00000000000000E+00   0.00000000000000E+00   0.00000000000000E+00   0.00000000000000E+00  -1.19685932274230E-14
     -5.58150946983811E-18  -1.19741747368928E-14   4.50069455923129E-16   1.00000000000000E+00   1.00000000000000E+00
      0.00000000000000E+00   0.00000000000000E+00   1.19917509877414E-14   1.80243218445213E-20   1.19917690120633E-14
      7.94430281718279E-16  -4.81182675591269E-01  -4.81182675591269E-01   0.00000000000000E+00   0.00000000000000E+00
      0.00000000000000E+00   0.00000000000000E+00   0.00000000000000E+00  -5.16151910997933E-16
      1.21382791491803E-02
      0.00000000000000E+00   0.00000000000000E+00   0.00000000000000E+00   0.00000000000000E+00  -1.19217095187417E-14
     -5.46424068281308E-18  -1.19271737594246E-14   4.49913491074837E-16   1.00000000000000E+00   1.00000000000000E+00
      0.00000000000000E+00   0.00000000000000E+00   1.19326981719374E-14   1.80243106751252E-20   1.19327161962480E-14
      7.94011458230478E-16  -4.75723441701639E-01  -4.75723441701639E-01   0.00000000000000E+00   0.00000000000000E+00
      0.00000000000000E+00   0.00000000000000E+00   0.00000000000000E+00  -5.10521908044352E-16
      1.53774245903606E-02
      0.00000000000000E+00   0.00000000000000E+00   0.00000000000000E+00   0.00000000000000E+00  -1.18665598874118E-14
     -5.32212509920669E-18  -1.18718820125110E-14   4.49732300909082E-16   1.00000000000000E+00   1.00000000000000E+00
      0.00000000000000E+00   0.00000000000000E+00   1.18715548524933E-14   1.80243016709083E-20   1.18715728767950E-14
      7.93515286079019E-16  -4.69245150819279E-01  -4.69245150819279E-01   0.00000000000000E+00   0.00000000000000E+00
      0.00000000000000E+00   0.00000000000000E+00   0.00000000000000E+00  -5.03836307893901E-16
      1.92212105138946E-02
      0.00000000000000E+00   0.00000000000000E+00   0.00000000000000E+00   0.00000000000000E+00  -1.17878089200040E-14
     -5.14958659166954E-18  -1.17929585065957E-14   4.49523068138971E-16   1.00000000000000E+00   1.00000000000000E+00
      0.00000000000000E+00   0.00000000000000E+00   1.17778199686976E-14   1.80242971430439E-20   1.17778379929948E-14
      7.92927767024849E-16  -4.61557578972211E-01  -4.61557578972211E-01   0.00000000000000E+00   0.00000000000000E+00
      0.00000000000000E+00   0.00000000000000E+00   0.00000000000000E+00  -4.95895888651503E-16
      2.37825031431549E-02
      0.00000000000000E+00   0.00000000000000E+00   0.00000000000000E+00   0.00000000000000E+00  -1.16768500275470E-14
     -4.93989032035478E-18  -1.16817899178673E-14   4.49283357519651E-16   1.00000000000000E+00   1.00000000000000E+00
      0.00000000000000E+00   0.00000000000000E+00   1.16865070332275E-14   1.80243006682043E-20   1.16865250575282E-14
      7.92232480754392E-16  -4.52434993713690E-01  -4.52434993713690E-01   0.00000000000000E+00   0.00000000000000E+00
      0.00000000000000E+00   0.00000000000000E+00   0.00000000000000E+00  -4.86463567588747E-16
      2.91344198281537E-02
      0.00000000000000E+00   0.00000000000000E+00   0.00000000000000E+00   0.00000000000000E+00  -1.15455506491400E-14
     -4.68789234067056E-18  -1.15502385414807E-14   4.49014714325069E-16   1.00000000000000E+00   1.00000000000000E+00
      0.00000000000000E+00   0.00000000000000E+00   1.15227452030177E-14   1.80243175047336E-20   1.15227632273353E-14
      7.91419452206456E-16  -4.41731160343693E-01  -4.41731160343693E-01   0.00000000000000E+00   0.00000000000000E+00
      0.00000000000000E+00   0.00000000000000E+00   0.00000000000000E+00  -4.75383079641364E-16
      3.54140020718856E-02
      0.00000000000000E+00   0.00000000000000E+00   0.00000000000000E+00   0.00000000000000E+00  -1.13586542683101E-14
     -4.38583225321861E-18  -1.13630401005633E-14   4.48717687824069E-16   1.00000000000000E+00   1.00000000000000E+00
      0.00000000000000E+00   0.00000000000000E+00   1.13590748689004E-14   1.80243550349021E-20   1.13590928932554E-14
      7.90469278316238E-16  -4.29171995856229E-01  -4.29171995856229E-01   0.00000000000000E+00   0.00000000000000E+00
      0.00000000000000E+00   0.00000000000000E+00   0.00000000000000E+00  -4.62366087106770E-16
      4.27820452378644E-02
      0.00000000000000E+00   0.00000000000000E+00   0.00000000000000E+00   0.00000000000000E+00  -1.11255757993652E-14
     -4.02594765787695E-18  -1.11296017470230E-14   4.48394969917047E-16   1.00000000000000E+00   1.00000000000000E+00