DF-ISE text

Info {
  version   = 1.0
  type      = xyplot
  datasets  = [
    "time"
    "S OuterVoltage" "S InnerVoltage" "S QuasiFermiPotential" "S DisplacementCurrent" "S eCurrent"
    "S hCurrent" "S TotalCurrent" "S Charge" "D OuterVoltage" "D InnerVoltage"
    "D QuasiFermiPotential" "D DisplacementCurrent" "D eCurrent" "D hCurrent" "D TotalCurrent"
    "D Charge" "G OuterVoltage" "G InnerVoltage" "G QuasiFermiPotential" "G DisplacementCurrent"
    "G eCurrent" "G hCurrent" "G TotalCurrent" "G Charge" ]
  functions = [
    Time
    OuterVoltage InnerVoltage QuasiFermiPotential DisplacementCurrent eCurrent
    hCurrent TotalCurrent Charge OuterVoltage InnerVoltage
    QuasiFermiPotential DisplacementCurrent eCurrent hCurrent TotalCurrent
    Charge OuterVoltage InnerVoltage QuasiFermiPotential DisplacementCurrent
    eCurrent hCurrent TotalCurrent Charge ]
}

Data {
      0.00000000000000E+00
      0.00000000000000E+00   0.00000000000000E+00   0.00000000000000E+00   0.00000000000000E+00   8.46864459699706E-19
     -6.99230703091361E-37   8.46864459699706E-19   5.97016720179974E-16   0.00000000000000E+00   0.00000000000000E+00
      0.00000000000000E+00   0.00000000000000E+00   1.89088207089986E-19   3.60858619572361E-35   1.89088207089986E-19
      6.70516949615386E-16  -5.00000000000000E-01  -5.00000000000000E-01   0.00000000000000E+00   0.00000000000000E+00
      0.00000000000000E+00   0.00000000000000E+00   0.00000000000000E+00  -2.52389691040253E-16
      0.00000000000000E+00
      0.00000000000000E+00   0.00000000000000E+00   0.00000000000000E+00   0.00000000000000E+00  -5.23663174710632E-18
      2.63478276588001E-32  -5.23663174710629E-18   5.97016719953161E-16   0.00000000000000E+00   0.00000000000000E+00
      0.00000000000000E+00   0.00000000000000E+00  -1.11598940331997E-17   2.63336173711429E-32  -1.11598940331997E-17
      6.70516949266094E-16  -5.00000000000000E-01  -5.00000000000000E-01   0.00000000000000E+00   0.00000000000000E+00
      0.00000000000000E+00   0.00000000000000E+00   0.00000000000000E+00  -2.52389691040662E-16
      1.00000000000000E-03
      0.00000000000000E+00   0.00000000000000E+00   0.00000000000000E+00   0.00000000000000E+00  -5.58466554816934E-18
     -5.59735193262812E-22  -5.58522528336260E-18   5.96780751625032E-16   1.00000000000000E-03   1.00000000000000E-03
      0.00000000000000E+00   0.00000000000000E+00   2.83293391039911E-19   2.89401307837800E-22   2.83582792347749E-19
      6.70657629669226E-16  -5.00000000000000E-01  -5.00000000000000E-01   0.00000000000000E+00   0.00000000000000E+00
      0.00000000000000E+00   0.00000000000000E+00   0.00000000000000E+00  -2.53139559878061E-16
      2.17333333333333E-03
      0.00000000000000E+00   0.00000000000000E+00   0.00000000000000E+00   0.00000000000000E+00  -2.41855050856109E-17
     -1.22812080354580E-21  -2.41867332064144E-17   5.96506272439603E-16   2.17333333333333E-03   2.17333333333333E-03
      0.00000000000000E+00   0.00000000000000E+00   6.67458522450602E-18   6.30104242368254E-22   6.67521532874838E-18
      6.70824579691738E-16  -5.00000000000000E-01  -5.00000000000000E-01   0.00000000000000E+00   0.00000000000000E+00
      0.00000000000000E+00   0.00000000000000E+00   0.00000000000000E+00  -2.54011596172045E-16
      3.56568888888889E-03
      0.00000000000000E+00   0.00000000000000E+00   0.00000000000000E+00   0.00000000000000E+00  -2.59029060071382E-17
     -2.03742204940911E-21  -2.59049434291876E-17   5.96183942971869E-16   3.56568888888889E-03   3.56568888888889E-03
      0.00000000000000E+00   0.00000000000000E+00   3.44049897606761E-17   1.03575066782444E-21   3.44060255113439E-17
      6.71025349035198E-16  -5.00000000000000E-01  -5.00000000000000E-01   0.00000000000000E+00   0.00000000000000E+00
      0.00000000000000E+00   0.00000000000000E+00   0.00000000000000E+00  -2.55035392040368E-16
      5.21795081481481E-03
      0.00000000000000E+00   0.00000000000000E+00   0.00000000000000E+00   0.00000000000000E+00  -4.65426581094052E-17
     -3.02028146350172E-21  -4.65456783908687E-17   5.95806271739233E-16   5.21795081481481E-03   5.21795081481481E-03
      0.00000000000000E+00   0.00000000000000E+00   3.59297550090057E-17   1.51859218540989E-21   3.59312736011911E-17
      6.71267356113716E-16  -5.00000000000000E-01  -5.00000000000000E-01   0.00000000000000E+00   0.00000000000000E+00
      0.00000000000000E+00   0.00000000000000E+00   0.00000000000000E+00  -2.56234654868252E-16
      7.17863496691358E-03
      0.00000000000000E+00   0.00000000000000E+00   0.00000000000000E+00   0.00000000000000E+00  -5.82320618672602E-17
     -4.21779368512889E-21  -5.82362796609454E-17   5.95364988784617E-16   7.17863496691358E-03   7.17863496691358E-03
      0.00000000000000E+00   0.00000000000000E+00   5.64542580701820E-17   2.09292639385125E-21   5.64563509965759E-17
      6.71559864243180E-16  -5.00000000000000E-01  -5.00000000000000E-01   0.00000000000000E+00   0.00000000000000E+00
      0.00000000000000E+00   0.00000000000000E+00   0.00000000000000E+00  -2.57635570236435E-16
      9.50531349407078E-03
      0.00000000000000E+00   0.00000000000000E+00   0.00000000000000E+00   0.00000000000000E+00  -7.31165456853850E-17
     -5.68182118435951E-21  -7.31222275065694E-17   5.94851168310290E-16   9.50531349407078E-03   9.50531349407078E-03
      0.00000000000000E+00   0.00000000000000E+00   7.09263370785053E-17   2.77517853940336E-21   7.09291122570446E-17
      6.71914514932903E-16  -5.00000000000000E-01  -5.00000000000000E-01   0.00000000000000E+00   0.00000000000000E+00
      0.00000000000000E+00   0.00000000000000E+00   0.00000000000000E+00  -2.59266447366352E-16
      1.22663053462973E-02
      0.00000000000000E+00   0.00000000000000E+00   0.00000000000000E+00   0.00000000000000E+00  -9.15561907025754E-17
     -7.47783636360394E-21  -9.15636685389390E-17   5.94255483844406E-16   1.22663053462973E-02   1.22663053462973E-02
      0.00000000000000E+00   0.00000000000000E+00   1.10468377564574E-16   3.58373833655771E-21   1.10471961302911E-16
      6.72346031517626E-16  -5.00000000000000E-01  -5.00000000000000E-01   0.00000000000000E+00   0.00000000000000E+00
      0.00000000000000E+00   0.00000000000000E+00   0.00000000000000E+00  -2.61156977523546E-16
      1.55426823442728E-02
      0.00000000000000E+00   0.00000000000000E+00   0.00000000000000E+00   0.00000000000000E+00  -1.35090711012152E-16
     -9.68821673213904E-21  -1.35100399228884E-16   5.93568664130076E-16   1.55426823442728E-02   1.55426823442728E-02
      0.00000000000000E+00   0.00000000000000E+00   1.25668327474246E-16   4.53833485463460E-21   1.25672865809101E-16
      6.72873148746468E-16  -5.00000000000000E-01  -5.00000000000000E-01   0.00000000000000E+00   0.00000000000000E+00
      0.00000000000000E+00   0.00000000000000E+00   0.00000000000000E+00  -2.63336913394700E-16
      1.94306497152037E-02
      0.00000000000000E+00   0.00000000000000E+00   0.00000000000000E+00   0.00000000000000E+00  -1.63780225263993E-16
     -1.24156810608981E-20  -1.63792640945054E-16   5.92782232301708E-16   1.94306497152037E-02   1.94306497152037E-02
      0.00000000000000E+00   0.00000000000000E+00   1.52241078669814E-16   5.65858845951443E-21   1.52246737258273E-16
      6.73519830053837E-16  -5.00000000000000E-01  -5.00000000000000E-01   0.00000000000000E+00   0.00000000000000E+00
      0.00000000000000E+00   0.00000000000000E+00   0.00000000000000E+00  -2.65833943374353E-16
      2.40443709953751E-02
      0.00000000000000E+00   0.00000000000000E+00   0.00000000000000E+00   0.00000000000000E+00  -2.01575744871995E-16
     -1.57860843742054E-20  -2.01591530956369E-16   5.91889613717198E-16   2.40443709953751E-02   2.40443709953751E-02
      0.00000000000000E+00   0.00000000000000E+00   1.99638185173609E-16   6.96119693407378E-21   1.99645146370543E-16
      6.74316828354206E-16  -5.00000000000000E-01  -5.00000000000000E-01   0.00000000000000E+00   0.00000000000000E+00
      0.00000000000000E+00   0.00000000000000E+00   0.00000000000000E+00  -2.68670538317055E-16
      2.95193202478451E-02
      0.00000000000000E+00   0.00000000000000E+00   0.00000000000000E+00   0.00000000000000E+00  -2.49987109475458E-16
     -1.99486704589248E-20  -2.50007058145917E-16   5.90887739491572E-16   2.95193202478451E-02   2.95193202478451E-02
      0.00000000000000E+00   0.00000000000000E+00   2.56012482385982E-16   8.45515950263796E-21   2.56020937545485E-16
      6.75303662765614E-16  -5.00000000000000E-01  -5.00000000000000E-01   0.00000000000000E+00   0.00000000000000E+00
      0.00000000000000E+00   0.00000000000000E+00   0.00000000000000E+00  -2.71859440780505E-16
      3.59432607040766E-02
      0.00000000000000E+00   0.00000000000000E+00   0.00000000000000E+00   0.00000000000000E+00  -3.06259512587917E-16
     -2.50125822974532E-20  -3.06284525170214E-16   5.89791035029282E-16   3.59432607040766E-02   3.59432607040766E-02
      0.00000000000000E+00   0.00000000000000E+00   3.08543193163635E-16   1.01160427226843E-20   3.08553309206357E-16
      6.76516791053551E-16  -5.00000000000000E-01  -5.00000000000000E-01   0.00000000000000E+00   0.00000000000000E+00
      0.00000000000000E+00   0.00000000000000E+00   0.00000000000000E+00  -2.75359811711895E-16
      4.34806841727216E-02
      0.00000000000000E+00   0.00000000000000E+00   0.00000000000000E+00   0.00000000000000E+00  -3.75657864542133E-16
     -3.11217514603095E-20  -3.75688986293593E-16   5.88610600930580E-16   4.34806841727216E-02   4.34806841727216E-02
      0.00000000000000E+00   0.00000000000000E+00   3.76051561235542E-16   1.19118783944918E-20   3.76063473113937E-16
      6.78012896980254E-16  -5.00000000000000E-01  -5.00000000000000E-01   0.00000000000000E+00   0.00000000000000E+00
      0.00000000000000E+00   0.00000000000000E+00   0.00000000000000E+00  -2.79144373027702E-16
      5.23245943759316E-02
      0.00000000000000E+00   0.00000000000000E+00   0.00000000000000E+00   0.00000000000000E+00  -4.53733263904492E-16
     -3.83880771363629E-20  -4.53771651981628E-16   5.87366417927277E-16   5.23245943759316E-02   5.23245943759316E-02
      0.00000000000000E+00   0.00000000000000E+00   4.55049048989555E-16   1.37798993090310E-20   4.55062828888864E-16
      6.79861774686852E-16  -5.00000000000000E-01  -5.00000000000000E-01   0.00000000000000E+00   0.00000000000000E+00
      0.00000000000000E+00   0.00000000000000E+00   0.00000000000000E+00  -2.83161742713986E-16
      6.27014490143648E-02
      0.00000000000000E+00   0.00000000000000E+00   0.00000000000000E+00   0.00000000000000E+00  -5.47338453769776E-16
     -4.68434463515613E-20  -5.47385297216127E-16   5.86088663765309E-16   6.27014490143648E-02   6.27014490143648E-02
      0.00000000000000E+00   0.00000000000000E+00   5.20810681896639E-16   1.56219799414069E-20   5.20826303876580E-16
      6.82147606539258E-16  -5.00000000000000E-01  -5.00000000000000E-01   0.00000000000000E+00   0.00000000000000E+00
      0.00000000000000E+00   0.00000000000000E+00   0.00000000000000E+00  -2.87333368872098E-16
      7.48769584567930E-02
      0.00000000000000E+00   0.00000000000000E+00   0.00000000000000E+00   0.00000000000000E+00  -6.29186200025379E-16
     -5.63740358014778E-20  -6.29242574061181E-16   5.84817891153121E-16   7.48769584567930E-02   7.48769584567930E-02
      0.00000000000000E+00   0.00000000000000E+00   6.25214555790720E-16   1.73085098906733E-20   6.25231864300611E-16
      6.84969339767445E-16  -5.00000000000000E-01  -5.00000000000000E-01   0.00000000000000E+00   0.00000000000000E+00
      0.00000000000000E+00   0.00000000000000E+00   0.00000000000000E+00  -2.91553815698379E-16
      8.90005494100098E-02
      0.00000000000000E+00   0.00000000000000E+00   0.00000000000000E+00   0.00000000000000E+00  -7.23560439039667E-16
     -6.65407303677463E-20  -7.23626979770035E-16   5.83615563229779E-16   8.90005494100098E-02   8.90005494100098E-02
      0.00000000000000E+00   0.00000000000000E+00   7.25387336654625E-16   1.86797360223679E-20   7.25406016390647E-16
      6.88399529612267E-16  -5.00000000000000E-01  -5.00000000000000E-01   0.00000000000000E+00   0.00000000000000E+00
      0.00000000000000E+00   0.00000000000000E+00   0.00000000000000E+00  -2.95653841963961E-16
      1.05383914915741E-01
      0.00000000000000E+00   0.00000000000000E+00   0.00000000000000E+00   0.00000000000000E+00  -8.03157457749404E-16
     -7.67770549662343E-20  -8.03234234804370E-16   5.82529725517964E-16   1.05383914915741E-01   1.05383914915741E-01
      0.00000000000000E+00   0.00000000000000E+00   8.10090459855768E-16   1.96042864970656E-20   8.10110064142265E-16
      6.92544499805367E-16  -5.00000000000000E-01  -5.00000000000000E-01   0.00000000000000E+00   0.00000000000000E+00
      0.00000000000000E+00   0.00000000000000E+00   0.00000000000000E+00  -2.99511943474529E-16
      1.24388618902390E-01
      0.00000000000000E+00   0.00000000000000E+00   0.00000000000000E+00   0.00000000000000E+00  -8.93118650043581E-16
     -8.63407851034617E-20  -8.93204990828685E-16   5.81604138337218E-16   1.24388618902390E-01   1.24388618902390E-01
      0.00000000000000E+00   0.00000000000000E+00   8.73141930190327E-16   1.99758557049207E-20   8.73161906046032E-16
      6.97515950750175E-16  -5.00000000000000E-01  -5.00000000000000E-01   0.00000000000000E+00   0.00000000000000E+00
      0.00000000000000E+00   0.00000000000000E+00   0.00000000000000E+00  -3.03022006047734E-16
      1.46434075526902E-01
      0.00000000000000E+00   0.00000000000000E+00   0.00000000000000E+00   0.00000000000000E+00  -9.51350502351864E-16
     -9.44823450833791E-20  -9.51444984696948E-16   5.80868278300677E-16   1.46434075526902E-01   1.46434075526902E-01
      0.00000000000000E+00   0.00000000000000E+00   9.51265646575859E-16   1.98124436527310E-20   9.51285459019512E-16
      7.03427524582795E-16  -5.00000000000000E-01  -5.00000000000000E-01   0.00000000000000E+00   0.00000000000000E+00
      0.00000000000000E+00   0.00000000000000E+00   0.00000000000000E+00  -3.06121330586501E-16
      1.72006805211336E-01
      0.00000000000000E+00   0.00000000000000E+00   0.00000000000000E+00   0.00000000000000E+00  -9.92945711805040E-16
     -1.00707222992022E-19  -9.93046419028033E-16   5.80326262808847E-16   1.72006805211336E-01   1.72006805211336E-01
      0.00000000000000E+00   0.00000000000000E+00   1.00051427109511E-15   1.93017039029787E-20   1.00053357279901E-15
      7.10392277805381E-16  -5.00000000000000E-01  -5.00000000000000E-01   0.00000000000000E+00   0.00000000000000E+00
      0.00000000000000E+00   0.00000000000000E+00   0.00000000000000E+00  -3.08821520834561E-16
      2.01671171645280E-01
      0.00000000000000E+00   0.00000000000000E+00   0.00000000000000E+00   0.00000000000000E+00  -1.03395075752261E-15
     -1.04977512520219E-19  -1.03405573503513E-15   5.79952092200622E-16   2.01671171645280E-01   2.01671171645280E-01
      0.00000000000000E+00   0.00000000000000E+00   1.03045433103931E-15   1.86354006105761E-20   1.03047296643992E-15
      7.18524833836127E-16  -5.00000000000000E-01  -5.00000000000000E-01   0.00000000000000E+00   0.00000000000000E+00
      0.00000000000000E+00   0.00000000000000E+00   0.00000000000000E+00  -3.11221558641516E-16
      2.36081836708654E-01
      0.00000000000000E+00   0.00000000000000E+00   0.00000000000000E+00   0.00000000000000E+00  -1.05643581749764E-15
     -1.07692839287159E-19  -1.05654351033692E-15   5.79696561371365E-16   2.36081836708654E-01   2.36081836708654E-01
      0.00000000000000E+00   0.00000000000000E+00   1.05968264185089E-15   1.79538641705749E-20   1.05970059571506E-15
      7.27950054519824E-16  -5.00000000000000E-01  -5.00000000000000E-01   0.00000000000000E+00   0.00000000000000E+00
      0.00000000000000E+00   0.00000000000000E+00   0.00000000000000E+00  -3.13488159195967E-16
      2.75998208182169E-01
      0.00000000000000E+00   0.00000000000000E+00   0.00000000000000E+00   0.00000000000000E+00  -1.05968619981134E-15
     -1.09513325298592E-19  -1.05979571313663E-15   5.79499258319420E-16   2.75998208182169E-01   2.75998208182169E-01
      0.00000000000000E+00   0.00000000000000E+00   1.07083737288260E-15   1.74724599705009E-20   1.07085484534257E-15
      7.38813498057218E-16  -5.00000000000000E-01  -5.00000000000000E-01   0.00000000000000E+00   0.00000000000000E+00
      0.00000000000000E+00   0.00000000000000E+00   0.00000000000000E+00  -3.15821995006796E-16
      3.22301199091445E-01
      0.00000000000000E+00   0.00000000000000E+00   0.00000000000000E+00   0.00000000000000E+00  -1.08786524222335E-15
     -1.11334928653213E-19  -1.08797657715201E-15   5.79286620843827E-16   3.22301199091445E-01   3.22301199091445E-01
      0.00000000000000E+00   0.00000000000000E+00   1.07070443102258E-15   1.74932543251608E-20   1.07072192427690E-15
      7.51283088681769E-16  -5.00000000000000E-01  -5.00000000000000E-01   0.00000000000000E+00   0.00000000000000E+00
      0.00000000000000E+00   0.00000000000000E+00   0.00000000000000E+00  -3.18463456524416E-16
      3.76012668546207E-01
      0.00000000000000E+00   0.00000000000000E+00   0.00000000000000E+00   0.00000000000000E+00  -1.09973202546613E-15
     -1.14557597159372E-19  -1.09984658306329E-15   5.78951259400939E-16   3.76012668546207E-01   3.76012668546207E-01
      0.00000000000000E+00   0.00000000000000E+00   1.09075645684077E-15   1.77293135243525E-20   1.09077418615430E-15
      7.65540799005255E-16  -5.00000000000000E-01  -5.00000000000000E-01   0.00000000000000E+00   0.00000000000000E+00
      0.00000000000000E+00   0.00000000000000E+00   0.00000000000000E+00  -3.21751264011229E-16
      4.37601820187666E-01
      0.00000000000000E+00   0.00000000000000E+00   0.00000000000000E+00   0.00000000000000E+00  -1.15090477626102E-15
     -1.20156011864201E-19  -1.15102493227289E-15   5.78425600535004E-16   4.37601820187666E-01   4.37601820187666E-01
      0.00000000000000E+00   0.00000000000000E+00   1.15793182576407E-15   1.79284946150466E-20   1.15794975425868E-15
      7.81639510026497E-16  -5.00000000000000E-01  -5.00000000000000E-01   0.00000000000000E+00   0.00000000000000E+00
      0.00000000000000E+00   0.00000000000000E+00   0.00000000000000E+00  -3.25881343895380E-16
      5.07402858714653E-01
      0.00000000000000E+00   0.00000000000000E+00   0.00000000000000E+00   0.00000000000000E+00  -1.16959253125831E-15
     -1.24405847202268E-19  -1.16971693710551E-15   5.77965200809631E-16   5.07402858714653E-01   5.07402858714653E-01
      0.00000000000000E+00   0.00000000000000E+00   1.17376519795750E-15   1.80189413435490E-20   1.17378321689885E-15
      7.99774997611507E-16  -5.00000000000000E-01  -5.00000000000000E-01   0.00000000000000E+00   0.00000000000000E+00
      0.00000000000000E+00   0.00000000000000E+00   0.00000000000000E+00  -3.30116595319172E-16
      5.87441382892265E-01
      0.00000000000000E+00   0.00000000000000E+00   0.00000000000000E+00   0.00000000000000E+00  -1.21220521859718E-15
     -1.28785582522722E-19  -1.21233400417970E-15   5.77446542220829E-16   5.87441382892265E-01   5.87441382892265E-01
      0.00000000000000E+00   0.00000000000000E+00   1.20411314258985E-15   1.80263531301127E-20   1.20413116894298E-15
      8.20363041540847E-16  -5.00000000000000E-01  -5.00000000000000E-01   0.00000000000000E+00   0.00000000000000E+00
      0.00000000000000E+00   0.00000000000000E+00   0.00000000000000E+00  -3.34857639054400E-16
      6.79218890615927E-01
      0.00000000000000E+00   0.00000000000000E+00   0.00000000000000E+00   0.00000000000000E+00  -1.27593080966160E-15
     -1.36721139020345E-19  -1.27606753080062E-15   5.76632646091890E-16   6.79218890615927E-01   6.79218890615927E-01
      0.00000000000000E+00   0.00000000000000E+00   1.26945796069895E-15   1.80314643829450E-20   1.26947599216333E-15
      8.43602669234328E-16  -5.00000000000000E-01  -5.00000000000000E-01   0.00000000000000E+00   0.00000000000000E+00
      0.00000000000000E+00   0.00000000000000E+00   0.00000000000000E+00  -3.40787206698334E-16
      7.85680799575375E-01
      0.00000000000000E+00   0.00000000000000E+00   0.00000000000000E+00   0.00000000000000E+00  -1.39229327308380E-15
     -1.54334573157133E-19  -1.39244760765695E-15   5.75171570062080E-16   7.85680799575375E-01   7.85680799575375E-01
      0.00000000000000E+00   0.00000000000000E+00   1.40831177447092E-15   1.80478377532778E-20   1.40832982230868E-15
      8.69979182977533E-16  -5.00000000000000E-01  -5.00000000000000E-01   0.00000000000000E+00   0.00000000000000E+00
      0.00000000000000E+00   0.00000000000000E+00   0.00000000000000E+00  -3.48944475435672E-16
      9.07757121848875E-01
      0.00000000000000E+00   0.00000000000000E+00   0.00000000000000E+00   0.00000000000000E+00  -1.69003354707291E-15
     -2.00346664895123E-19  -1.69023389373780E-15   5.72313739922124E-16   9.07757121848875E-01   9.07757121848875E-01
      0.00000000000000E+00   0.00000000000000E+00   1.67113656898962E-15   1.80803065421218E-20   1.67115464929616E-15
      8.99218603474029E-16  -5.00000000000000E-01  -5.00000000000000E-01   0.00000000000000E+00   0.00000000000000E+00
      0.00000000000000E+00   0.00000000000000E+00   0.00000000000000E+00  -3.61391739831409E-16
      1.00000000000000E+00
      0.00000000000000E+00   0.00000000000000E+00   0.00000000000000E+00   0.00000000000000E+00  -1.98133542964452E-15
     -2.53167124506663E-19  -1.98158859676903E-15   5.69708809176797E-16   1.00000000000000E+00   1.00000000000000E+00
      0.00000000000000E+00   0.00000000000000E+00   1.98807020337545E-15   1.81070260207539E-20   1.98808831040147E-15
      9.20802324183257E-16  -5.00000000000000E-01  -5.00000000000000E-01   0.00000000000000E+00   0.00000000000000E+00
      0.00000000000000E+00   0.00000000000000E+00   0.00000000000000E+00  -3.71845451858040E-16
      0.00000000000000E+00
      0.00000000000000E+00   0.00000000000000E+00   0.00000000000000E+00   0.00000000000000E+00  -1.98381816337931E-15
     -2.53167352558268E-19  -1.98407133073187E-15   5.69708801140261E-16   1.00000000000000E+00   1.00000000000000E+00
      0.00000000000000E+00   0.00000000000000E+00   1.98783676098642E-15   1.81070260147888E-20   1.98785486801244E-15
      9.20802320135503E-16  -5.00000000000000E-01  -5.00000000000000E-01   0.00000000000000E+00   0.00000000000000E+00
      0.00000000000000E+00   0.00000000000000E+00   0.00000000000000E+00  -3.71845474886965E-16
      1.00000000000000E-03
      0.00000000000000E+00   0.00000000000000E+00   0.00000000000000E+00   0.00000000000000E+00  -1.98271086035878E-15
     -2.53126989279644E-19  -1.98296398734806E-15   5.69683126592866E-16   1.00000000000000E+00   1.00000000000000E+00
      0.00000000000000E+00   0.00000000000000E+00   1.98417597899989E-15   1.81070191278643E-20   1.98419408601902E-15
      9.20704920113739E-16  -4.98000000000000E-01  -4.98000000000000E-01   0.00000000000000E+00   0.00000000000000E+00
      0.00000000000000E+00   0.00000000000000E+00   0.00000000000000E+00  -3.69573716543759E-16
      2.17333333333333E-03
      0.00000000000000E+00   0.00000000000000E+00   0.00000000000000E+00   0.00000000000000E+00  -1.98452855341950E-15
     -2.53077937598380E-19  -1.98478163135710E-15   5.69652975801146E-16   1.00000000000000E+00   1.00000000000000E+00
      0.00000000000000E+00   0.00000000000000E+00   2.00412261203309E-15   1.81070110827007E-20   2.00414071904417E-15
      9.20590592928611E-16  -4.95653333333333E-01  -4.95653333333333E-01   0.00000000000000E+00   0.00000000000000E+00
      0.00000000000000E+00   0.00000000000000E+00   0.00000000000000E+00  -3.66908542595694E-16
      3.58133333333333E-03
      0.00000000000000E+00   0.00000000000000E+00   0.00000000000000E+00   0.00000000000000E+00  -1.99701762530663E-15
     -2.53013146761855E-19  -1.99727063845339E-15   5.69616880744108E-16   1.00000000000000E+00   1.00000000000000E+00
      0.00000000000000E+00   0.00000000000000E+00   2.00671723618460E-15   1.81070015709948E-20   2.00673534318617E-15
      9.20453398319754E-16  -4.92837333333333E-01  -4.92837333333333E-01   0.00000000000000E+00   0.00000000000000E+00
      0.00000000000000E+00   0.00000000000000E+00   0.00000000000000E+00  -3.63710493270520E-16
      5.27093333333333E-03
      0.00000000000000E+00   0.00000000000000E+00   0.00000000000000E+00   0.00000000000000E+00  -1.98149654797172E-15
     -2.52927242833945E-19  -1.98174947521455E-15   5.69573675161898E-16   1.00000000000000E+00   1.00000000000000E+00
      0.00000000000000E+00   0.00000000000000E+00   1.97637656538384E-15   1.81069903519737E-20   1.97639467237419E-15
      9.20288753410947E-16  -4.89458133333333E-01  -4.89458133333333E-01   0.00000000000000E+00   0.00000000000000E+00
      0.00000000000000E+00   0.00000000000000E+00   0.00000000000000E+00  -3.59873115041252E-16
      7.29845333333333E-03
      0.00000000000000E+00   0.00000000000000E+00   0.00000000000000E+00   0.00000000000000E+00  -1.98793799864557E-15
     -2.52813346411645E-19  -1.98819081199198E-15   5.69521948864460E-16   1.00000000000000E+00   1.00000000000000E+00
      0.00000000000000E+00   0.00000000000000E+00   1.98178072485052E-15   1.81069771453450E-20   1.98179883182767E-15
      9.20091143559021E-16  -4.85403093333333E-01  -4.85403093333333E-01   0.00000000000000E+00   0.00000000000000E+00
      0.00000000000000E+00   0.00000000000000E+00   0.00000000000000E+00  -3.55268782194537E-16
      9.73147733333333E-03
      0.00000000000000E+00   0.00000000000000E+00   0.00000000000000E+00   0.00000000000000E+00  -1.98403164642928E-15
     -2.52659560172251E-19  -1.98428430598945E-15   5.69460099782149E-16   1.00000000000000E+00   1.00000000000000E+00
      0.00000000000000E+00   0.00000000000000E+00   1.97309947783529E-15   1.81069617062605E-20   1.97311758479700E-15
      9.19853981923425E-16  -4.80537045333333E-01  -4.80537045333333E-01   0.00000000000000E+00   0.00000000000000E+00
      0.00000000000000E+00   0.00000000000000E+00   0.00000000000000E+00  -3.49744217041611E-16
      1.26186658133333E-02
      0.00000000000000E+00   0.00000000000000E+00   0.00000000000000E+00   0.00000000000000E+00  -1.98066467336941E-15
     -2.52457861169378E-19  -1.98091713123058E-15   5.69386834859983E-16   1.00000000000000E+00   1.00000000000000E+00
      0.00000000000000E+00   0.00000000000000E+00   1.99017218762769E-15   1.81069438319304E-20   1.99019029457153E-15
      9.19572409619966E-16  -4.74762668373333E-01  -4.74762668373333E-01   0.00000000000000E+00   0.00000000000000E+00
      0.00000000000000E+00   0.00000000000000E+00   0.00000000000000E+00  -3.43189871291171E-16
      1.60447961429333E-02
      0.00000000000000E+00   0.00000000000000E+00   0.00000000000000E+00   0.00000000000000E+00  -1.98340009177578E-15
     -2.52190289121335E-19  -1.98365228206490E-15   5.69300102115412E-16   1.00000000000000E+00   1.00000000000000E+00
      0.00000000000000E+00   0.00000000000000E+00   1.97601182316851E-15   1.81069232797231E-20   1.97602993009179E-15
      9.19238083945438E-16  -4.67910407714133E-01  -4.67910407714133E-01   0.00000000000000E+00   0.00000000000000E+00
      0.00000000000000E+00   0.00000000000000E+00   0.00000000000000E+00  -3.35414118792123E-16
      2.01104708007253E-02
      0.00000000000000E+00   0.00000000000000E+00   0.00000000000000E+00   0.00000000000000E+00  -1.99451070747820E-15
     -2.51834315711129E-19  -1.99476254179392E-15   5.69197401046258E-16   1.00000000000000E+00   1.00000000000000E+00
      0.00000000000000E+00   0.00000000000000E+00   1.98839814375483E-15   1.81068997828868E-20   1.98841625065461E-15
      9.18841027554707E-16  -4.59779058398549E-01  -4.59779058398549E-01   0.00000000000000E+00   0.00000000000000E+00
      0.00000000000000E+00   0.00000000000000E+00   0.00000000000000E+00  -3.26190142456567E-16
      2.49350713946385E-02
      0.00000000000000E+00   0.00000000000000E+00   0.00000000000000E+00   0.00000000000000E+00  -1.99449148359995E-15
     -2.51360589820367E-19  -1.99474284418977E-15   5.69075696014539E-16   1.00000000000000E+00   1.00000000000000E+00
      0.00000000000000E+00   0.00000000000000E+00   2.00255757138921E-15   1.81068730777350E-20   2.00257567826229E-15
      9.18369298347376E-16  -4.50129857210723E-01  -4.50129857210723E-01   0.00000000000000E+00   0.00000000000000E+00
      0.00000000000000E+00   0.00000000000000E+00   0.00000000000000E+00  -3.15249575926605E-16
      3.06602640994155E-02
      0.00000000000000E+00   0.00000000000000E+00   0.00000000000000E+00   0.00000000000000E+00  -1.98323157752303E-15
     -2.50730875395916E-19  -1.98348230839843E-15   5.68931264077097E-16   1.00000000000000E+00   1.00000000000000E+00
      0.00000000000000E+00   0.00000000000000E+00   1.97848075187923E-15   1.81068429171345E-20   1.97849885872214E-15
      9.17808558511178E-16  -4.38679471801169E-01  -4.38679471801169E-01   0.00000000000000E+00   0.00000000000000E+00
      0.00000000000000E+00   0.00000000000000E+00   0.00000000000000E+00  -3.02275217383954E-16
      3.74541594424175E-02
      0.00000000000000E+00   0.00000000000000E+00   0.00000000000000E+00   0.00000000000000E+00  -1.97799474772331E-15
     -2.49895875282572E-19  -1.97824464359859E-15   5.68759460184400E-16   1.00000000000000E+00   1.00000000000000E+00
      0.00000000000000E+00   0.00000000000000E+00   1.99177629965029E-15   1.81068090747875E-20   1.99179440645936E-15
      9.17141511021662E-16  -4.25091681115165E-01  -4.25091681115165E-01   0.00000000000000E+00   0.00000000000000E+00
      0.00000000000000E+00   0.00000000000000E+00   0.00000000000000E+00  -2.86892735672407E-16
      4.55162485827798E-02
      0.00000000000000E+00   0.00000000000000E+00   0.00000000000000E+00   0.00000000000000E+00  -1.98350481556445E-15
     -2.48793385270758E-19  -1.98375360894972E-15   5.68554338689137E-16   1.00000000000000E+00   1.00000000000000E+00