DF-ISE text

Info {
  version   = 1.0
  type      = xyplot
  datasets  = [
    "time"
    "S OuterVoltage" "S InnerVoltage" "S QuasiFermiPotential" "S DisplacementCurrent" "S eCurrent"
    "S hCurrent" "S TotalCurrent" "S Charge" "D OuterVoltage" "D InnerVoltage"
    "D QuasiFermiPotential" "D DisplacementCurrent" "D eCurrent" "D hCurrent" "D TotalCurrent"
    "D Charge" "G OuterVoltage" "G InnerVoltage" "G QuasiFermiPotential" "G DisplacementCurrent"
    "G eCurrent" "G hCurrent" "G TotalCurrent" "G Charge" ]
  functions = [
    Time
    OuterVoltage InnerVoltage QuasiFermiPotential DisplacementCurrent eCurrent
    hCurrent TotalCurrent Charge OuterVoltage InnerVoltage
    QuasiFermiPotential DisplacementCurrent eCurrent hCurrent TotalCurrent
    Charge OuterVoltage InnerVoltage QuasiFermiPotential DisplacementCurrent
    eCurrent hCurrent TotalCurrent Charge ]
}

Data {
      0.00000000000000E+00
      0.00000000000000E+00   0.00000000000000E+00   0.00000000000000E+00   0.00000000000000E+00   3.31570086819841E-18
     -2.31766247788464E-35   3.31570086819841E-18   9.16293183309963E-16   0.00000000000000E+00   0.00000000000000E+00
      0.00000000000000E+00   0.00000000000000E+00   1.42324978767946E-18  -5.13819684386374E-35   1.42324978767946E-18
      1.13493858320214E-15  -5.00000000000000E-01  -5.00000000000000E-01   0.00000000000000E+00   0.00000000000000E+00
      0.00000000000000E+00   0.00000000000000E+00   0.00000000000000E+00  -3.11146986660492E-16
      0.00000000000000E+00
      0.00000000000000E+00   0.00000000000000E+00   0.00000000000000E+00   0.00000000000000E+00   8.89295543926675E-18
      2.01082714053179E-31   8.89295543926695E-18   9.16293179166477E-16   0.00000000000000E+00   0.00000000000000E+00
      0.00000000000000E+00   0.00000000000000E+00   7.13872625371560E-18   2.01084473835965E-31   7.13872625371580E-18
      1.13493857855452E-15  -5.00000000000000E-01  -5.00000000000000E-01   0.00000000000000E+00   0.00000000000000E+00
      0.00000000000000E+00   0.00000000000000E+00   0.00000000000000E+00  -3.11146986661489E-16
      1.00000000000000E-03
      0.00000000000000E+00   0.00000000000000E+00   0.00000000000000E+00   0.00000000000000E+00  -2.11349937971376E-17
     -9.84266013107673E-23  -2.11350922237389E-17   9.16132203863335E-16   1.00000000000000E-03   1.00000000000000E-03
      0.00000000000000E+00   0.00000000000000E+00   3.46352171890138E-12   2.62353210587786E-22   3.46352171916373E-12
      1.13549858414293E-15  -5.00000000000000E-01  -5.00000000000000E-01   0.00000000000000E+00   0.00000000000000E+00
      0.00000000000000E+00   0.00000000000000E+00   0.00000000000000E+00  -3.11538285885586E-16
      2.18666666666667E-03
      0.00000000000000E+00   0.00000000000000E+00   0.00000000000000E+00   0.00000000000000E+00  -3.41593286117097E-18
     -2.14680840083373E-22  -3.41614754201106E-18   9.15944144473311E-16   2.18666666666667E-03   2.18666666666667E-03
      0.00000000000000E+00   0.00000000000000E+00  -4.19105825002145E-18   5.65919404929829E-22  -4.19049233061652E-18
      1.13616584995676E-15  -5.00000000000000E-01  -5.00000000000000E-01   0.00000000000000E+00   0.00000000000000E+00
      0.00000000000000E+00   0.00000000000000E+00   0.00000000000000E+00  -3.11997498208661E-16
      3.59484444444444E-03
      0.00000000000000E+00   0.00000000000000E+00   0.00000000000000E+00   0.00000000000000E+00  -1.81191282057156E-17
     -3.51844961415444E-22  -1.81194800506770E-17   9.15725077091761E-16   3.59484444444444E-03   3.59484444444444E-03
      0.00000000000000E+00   0.00000000000000E+00   8.32768856135260E-18   9.15373496488685E-22   8.32860393484909E-18
      1.13696141652722E-15  -5.00000000000000E-01  -5.00000000000000E-01   0.00000000000000E+00   0.00000000000000E+00
      0.00000000000000E+00   0.00000000000000E+00   0.00000000000000E+00  -3.12535346317764E-16
      5.26588207407407E-03
      0.00000000000000E+00   0.00000000000000E+00   0.00000000000000E+00   0.00000000000000E+00  -8.86230270129815E-18
     -5.13468219165739E-22  -8.86281616951732E-18   9.15470750290225E-16   5.26588207407407E-03   5.26588207407407E-03
      0.00000000000000E+00   0.00000000000000E+00   1.81197644684988E-17   1.31514419537478E-21   1.81210796126942E-17
      1.13791060134038E-15  -5.00000000000000E-01  -5.00000000000000E-01   0.00000000000000E+00   0.00000000000000E+00
      0.00000000000000E+00   0.00000000000000E+00   0.00000000000000E+00  -3.13163857337562E-16
      7.24884672790123E-03
      0.00000000000000E+00   0.00000000000000E+00   0.00000000000000E+00   0.00000000000000E+00  -2.84518805788550E-17
     -7.03604613005627E-22  -2.84525841834680E-17   9.15176656194201E-16   7.24884672790123E-03   7.24884672790123E-03
      0.00000000000000E+00   0.00000000000000E+00   3.80412590719444E-17   1.76899864393190E-21   3.80430280705883E-17
      1.13904390012763E-15  -5.00000000000000E-01  -5.00000000000000E-01   0.00000000000000E+00   0.00000000000000E+00
      0.00000000000000E+00   0.00000000000000E+00   0.00000000000000E+00  -3.13896380064943E-16
      9.60196478377613E-03
      0.00000000000000E+00   0.00000000000000E+00   0.00000000000000E+00   0.00000000000000E+00  -5.00217923220237E-17
     -9.26841594453222E-22  -5.00227191636181E-17   9.14838141076359E-16   9.60196478377613E-03   9.60196478377613E-03
      0.00000000000000E+00   0.00000000000000E+00   3.57780544376618E-17   2.27945982777480E-21   3.57803338974896E-17
      1.14039806782163E-15  -5.00000000000000E-01  -5.00000000000000E-01   0.00000000000000E+00   0.00000000000000E+00
      0.00000000000000E+00   0.00000000000000E+00   0.00000000000000E+00  -3.14747561170906E-16
      1.23943315434143E-02
      0.00000000000000E+00   0.00000000000000E+00   0.00000000000000E+00   0.00000000000000E+00  -5.68146698679193E-17
     -1.18831226760573E-21  -5.68158581801869E-17   9.14450563341834E-16   1.23943315434143E-02   1.23943315434143E-02
      0.00000000000000E+00   0.00000000000000E+00   6.67914117058007E-17   2.84703582312266E-21   6.67942587416238E-17
      1.14201740453409E-15  -5.00000000000000E-01  -5.00000000000000E-01   0.00000000000000E+00   0.00000000000000E+00
      0.00000000000000E+00   0.00000000000000E+00   0.00000000000000E+00  -3.15733272401995E-16
      1.57079400981850E-02
      0.00000000000000E+00   0.00000000000000E+00   0.00000000000000E+00   0.00000000000000E+00  -4.01435973267043E-17
     -1.49368706402014E-21  -4.01450910137683E-17   9.14009496515718E-16   1.57079400981850E-02   1.57079400981850E-02
      0.00000000000000E+00   0.00000000000000E+00   3.62066472638741E-17   3.46926400411455E-21   3.62101165278782E-17
      1.14395526135820E-15  -5.00000000000000E-01  -5.00000000000000E-01   0.00000000000000E+00   0.00000000000000E+00
      0.00000000000000E+00   0.00000000000000E+00   0.00000000000000E+00  -3.16870499477082E-16
      1.96400889165129E-02
      0.00000000000000E+00   0.00000000000000E+00   0.00000000000000E+00   0.00000000000000E+00  -7.98338144475345E-17
     -1.84914976608097E-21  -7.98356635973005E-17   9.13510956671131E-16   1.96400889165129E-02   1.96400889165129E-02
      0.00000000000000E+00   0.00000000000000E+00   5.80397062622245E-17   4.13962544177680E-21   5.80438458876663E-17
      1.14627575999949E-15  -5.00000000000000E-01  -5.00000000000000E-01   0.00000000000000E+00   0.00000000000000E+00
      0.00000000000000E+00   0.00000000000000E+00   0.00000000000000E+00  -3.18177235678981E-16
      2.43062388475953E-02
      0.00000000000000E+00   0.00000000000000E+00   0.00000000000000E+00   0.00000000000000E+00  -9.77587145315204E-17
     -2.26137503941693E-21  -9.77609759065598E-17   9.12951614568934E-16   2.43062388475953E-02   2.43062388475953E-02
      0.00000000000000E+00   0.00000000000000E+00   7.37847308410176E-17   4.84647826345700E-21   7.37895773192811E-17
      1.14905569550651E-15  -5.00000000000000E-01  -5.00000000000000E-01   0.00000000000000E+00   0.00000000000000E+00
      0.00000000000000E+00   0.00000000000000E+00   0.00000000000000E+00  -3.19672457222605E-16
      2.98434034324797E-02
      0.00000000000000E+00   0.00000000000000E+00   0.00000000000000E+00   0.00000000000000E+00  -1.07140358137059E-16
     -2.73756495591079E-21  -1.07143095702015E-16   9.12328905105328E-16   2.98434034324797E-02   2.98434034324797E-02
      0.00000000000000E+00   0.00000000000000E+00   1.17152479725333E-16   5.57228484424023E-21   1.17158052010177E-16
      1.15238653442912E-15  -5.00000000000000E-01  -5.00000000000000E-01   0.00000000000000E+00   0.00000000000000E+00
      0.00000000000000E+00   0.00000000000000E+00   0.00000000000000E+00  -3.21376339855750E-16
      3.64141720732093E-02
      0.00000000000000E+00   0.00000000000000E+00   0.00000000000000E+00   0.00000000000000E+00  -1.33468359053367E-16
     -3.28561982834795E-21  -1.33471644673195E-16   9.11640950157321E-16   3.64141720732093E-02   3.64141720732093E-02
      0.00000000000000E+00   0.00000000000000E+00   1.05622955015210E-16   6.29356521038719E-21   1.05629248580420E-16
      1.15637640999952E-15  -5.00000000000000E-01  -5.00000000000000E-01   0.00000000000000E+00   0.00000000000000E+00
      0.00000000000000E+00   0.00000000000000E+00   0.00000000000000E+00  -3.23310871423728E-16
      4.42114841935417E-02
      0.00000000000000E+00   0.00000000000000E+00   0.00000000000000E+00   0.00000000000000E+00  -1.46761317863603E-16
     -3.91468088501290E-21  -1.46765232544488E-16   9.10886061311890E-16   4.42114841935417E-02   4.42114841935417E-02
      0.00000000000000E+00   0.00000000000000E+00   1.85061714461021E-16   6.98206476211860E-21   1.85068696525783E-16
      1.16115184871424E-15  -5.00000000000000E-01  -5.00000000000000E-01   0.00000000000000E+00   0.00000000000000E+00
      0.00000000000000E+00   0.00000000000000E+00   0.00000000000000E+00  -3.25501269198476E-16
      5.34642945763361E-02
      0.00000000000000E+00   0.00000000000000E+00   0.00000000000000E+00   0.00000000000000E+00  -2.17327948475107E-16
     -4.63610705382274E-21  -2.17332584582161E-16   9.10061905461856E-16   5.34642945763361E-02   5.34642945763361E-02
      0.00000000000000E+00   0.00000000000000E+00   1.76149432608779E-16   7.60757986397210E-21   1.76157040188643E-16
      1.16685925212940E-15  -5.00000000000000E-01  -5.00000000000000E-01   0.00000000000000E+00   0.00000000000000E+00
      0.00000000000000E+00   0.00000000000000E+00   0.00000000000000E+00  -3.27978075307266E-16
      6.44442962305855E-02
      0.00000000000000E+00   0.00000000000000E+00   0.00000000000000E+00   0.00000000000000E+00  -2.22125966258098E-16
     -5.46513221862280E-21  -2.22131431390316E-16   9.09164268093395E-16   6.44442962305855E-02   6.44442962305855E-02
      0.00000000000000E+00   0.00000000000000E+00   2.21625382518110E-16   8.14232631381884E-21   2.21633524844424E-16
      1.17366598760529E-15  -5.00000000000000E-01  -5.00000000000000E-01   0.00000000000000E+00   0.00000000000000E+00
      0.00000000000000E+00   0.00000000000000E+00   0.00000000000000E+00  -3.30780057045648E-16
      7.74738981936281E-02
      0.00000000000000E+00   0.00000000000000E+00   0.00000000000000E+00   0.00000000000000E+00  -2.53832490217586E-16
     -6.42281210306817E-21  -2.53838913029689E-16   9.08186107362647E-16   7.74738981936281E-02   7.74738981936281E-02
      0.00000000000000E+00   0.00000000000000E+00   2.51218767487905E-16   8.56589551644932E-21   2.51227333383422E-16
      1.18176167176531E-15  -5.00000000000000E-01  -5.00000000000000E-01   0.00000000000000E+00   0.00000000000000E+00
      0.00000000000000E+00   0.00000000000000E+00   0.00000000000000E+00  -3.33956765026558E-16
      9.27619644969315E-02
      0.00000000000000E+00   0.00000000000000E+00   0.00000000000000E+00   0.00000000000000E+00  -2.88071529225116E-16
     -7.52489120709742E-21  -2.88079054116323E-16   9.07129437923159E-16   9.27619644969315E-02   9.27619644969315E-02
      0.00000000000000E+00   0.00000000000000E+00   2.69639271497865E-16   8.86618762713752E-21   2.69648137685492E-16
      1.19125286541862E-15  -5.00000000000000E-01  -5.00000000000000E-01   0.00000000000000E+00   0.00000000000000E+00
      0.00000000000000E+00   0.00000000000000E+00   0.00000000000000E+00  -3.37529305744993E-16
      1.10699962292807E-01
      0.00000000000000E+00   0.00000000000000E+00   0.00000000000000E+00   0.00000000000000E+00  -3.26845127077818E-16
     -8.80074673850910E-21  -3.26853927824557E-16   9.05986883560253E-16   1.10699962292807E-01   1.10699962292807E-01
      0.00000000000000E+00   0.00000000000000E+00   3.36988539982011E-16   9.04775564722534E-21   3.36997587737658E-16
      1.20234709771284E-15  -5.00000000000000E-01  -5.00000000000000E-01   0.00000000000000E+00   0.00000000000000E+00
      0.00000000000000E+00   0.00000000000000E+00   0.00000000000000E+00  -3.41556269046543E-16
      1.31747213039968E-01
      0.00000000000000E+00   0.00000000000000E+00   0.00000000000000E+00   0.00000000000000E+00  -3.92784242551501E-16
     -1.02761744180151E-20  -3.92794518725919E-16   9.04759234258464E-16   1.31747213039968E-01   1.31747213039968E-01
      0.00000000000000E+00   0.00000000000000E+00   4.10979008036391E-16   9.12092657313135E-21   4.10988128962964E-16
      1.21528442581839E-15  -5.00000000000000E-01  -5.00000000000000E-01   0.00000000000000E+00   0.00000000000000E+00
      0.00000000000000E+00   0.00000000000000E+00   0.00000000000000E+00  -3.46090939982550E-16
      1.56442653916637E-01
      0.00000000000000E+00   0.00000000000000E+00   0.00000000000000E+00   0.00000000000000E+00  -4.35529698258691E-16
     -1.19587603243798E-20  -4.35541657019015E-16   9.03464414857819E-16   1.56442653916637E-01   1.56442653916637E-01
      0.00000000000000E+00   0.00000000000000E+00   4.73810308351699E-16   9.10551887376806E-21   4.73819413870573E-16
      1.23035066408232E-15  -5.00000000000000E-01  -5.00000000000000E-01   0.00000000000000E+00   0.00000000000000E+00
      0.00000000000000E+00   0.00000000000000E+00   0.00000000000000E+00  -3.51168182544614E-16
      1.85418637878596E-01
      0.00000000000000E+00   0.00000000000000E+00   0.00000000000000E+00   0.00000000000000E+00  -5.29611922168391E-16
     -1.38189243075917E-20  -5.29625741092698E-16   9.02144134931866E-16   1.85418637878596E-01   1.85418637878596E-01
      0.00000000000000E+00   0.00000000000000E+00   5.40112459260129E-16   9.03331356418017E-21   5.40121492573693E-16
      1.24789413735752E-15  -5.00000000000000E-01  -5.00000000000000E-01   0.00000000000000E+00   0.00000000000000E+00
      0.00000000000000E+00   0.00000000000000E+00   0.00000000000000E+00  -3.56795938463137E-16
      2.19417125727293E-01
      0.00000000000000E+00   0.00000000000000E+00   0.00000000000000E+00   0.00000000000000E+00  -5.74374597253501E-16
     -1.57743037274063E-20  -5.74390371557228E-16   9.00863352594573E-16   2.19417125727293E-01   2.19417125727293E-01
      0.00000000000000E+00   0.00000000000000E+00   5.59511390413919E-16   8.93034028193541E-21   5.59520320754201E-16
      1.26834409103500E-15  -5.00000000000000E-01  -5.00000000000000E-01   0.00000000000000E+00   0.00000000000000E+00
      0.00000000000000E+00   0.00000000000000E+00   0.00000000000000E+00  -3.62959652038396E-16
      2.59308684803099E-01
      0.00000000000000E+00   0.00000000000000E+00   0.00000000000000E+00   0.00000000000000E+00  -6.63819615057270E-16
     -1.76883357082499E-20  -6.63837303392978E-16   8.99700586857482E-16   2.59308684803099E-01   2.59308684803099E-01
      0.00000000000000E+00   0.00000000000000E+00   6.61265944101718E-16   8.80890688272304E-21   6.61274753008601E-16
      1.29222611492913E-15  -5.00000000000000E-01  -5.00000000000000E-01   0.00000000000000E+00   0.00000000000000E+00
      0.00000000000000E+00   0.00000000000000E+00   0.00000000000000E+00  -3.69643089320984E-16
      3.06114780785377E-01
      0.00000000000000E+00   0.00000000000000E+00   0.00000000000000E+00   0.00000000000000E+00  -7.31354071731346E-16
     -1.93950080516323E-20  -7.31373466739398E-16   8.98729651283723E-16   3.06114780785377E-01   3.06114780785377E-01
      0.00000000000000E+00   0.00000000000000E+00   7.01675247685492E-16   8.67595846112171E-21   7.01683923643954E-16
      1.32016494971204E-15  -5.00000000000000E-01  -5.00000000000000E-01   0.00000000000000E+00   0.00000000000000E+00
      0.00000000000000E+00   0.00000000000000E+00   0.00000000000000E+00  -3.76865010395763E-16
      3.61033933404584E-01
      0.00000000000000E+00   0.00000000000000E+00   0.00000000000000E+00   0.00000000000000E+00  -7.87390921972632E-16
     -2.07545384981539E-20  -7.87411676511131E-16   8.97995640746832E-16   3.61033933404584E-01   3.61033933404584E-01
      0.00000000000000E+00   0.00000000000000E+00   7.35051924895403E-16   8.55113674138688E-21   7.35060476032144E-16
      1.35286791560378E-15  -5.00000000000000E-01  -5.00000000000000E-01   0.00000000000000E+00   0.00000000000000E+00
      0.00000000000000E+00   0.00000000000000E+00   0.00000000000000E+00  -3.84727562859743E-16
      4.24007895074607E-01
      0.00000000000000E+00   0.00000000000000E+00   0.00000000000000E+00   0.00000000000000E+00  -8.21193146129787E-16
     -2.17009926634168E-20  -8.21214847122450E-16   8.97503452388230E-16   4.24007895074607E-01   4.24007895074607E-01
      0.00000000000000E+00   0.00000000000000E+00   8.07587398074155E-16   8.51766517167310E-21   8.07595915739327E-16
      1.39023141498052E-15  -5.00000000000000E-01  -5.00000000000000E-01   0.00000000000000E+00   0.00000000000000E+00
      0.00000000000000E+00   0.00000000000000E+00   0.00000000000000E+00  -3.93266055188213E-16
      4.93699079322766E-01
      0.00000000000000E+00   0.00000000000000E+00   0.00000000000000E+00   0.00000000000000E+00  -8.29527883205772E-16
     -2.23139602492702E-20  -8.29550197166021E-16   8.97192346147432E-16   4.93699079322766E-01   4.93699079322766E-01
      0.00000000000000E+00   0.00000000000000E+00   8.39430848883715E-16   8.56823365625222E-21   8.39439417117371E-16
      1.43132155909906E-15  -5.00000000000000E-01  -5.00000000000000E-01   0.00000000000000E+00   0.00000000000000E+00
      0.00000000000000E+00   0.00000000000000E+00   0.00000000000000E+00  -4.02483719919777E-16
      5.71753205680705E-01
      0.00000000000000E+00   0.00000000000000E+00   0.00000000000000E+00   0.00000000000000E+00  -8.40303154987716E-16
     -2.27891342171369E-20  -8.40325944121933E-16   8.96955092332756E-16   5.71753205680705E-01   5.71753205680705E-01
      0.00000000000000E+00   0.00000000000000E+00   8.26270730844865E-16   8.62148745555714E-21   8.26279352332321E-16
      1.47689673136184E-15  -5.00000000000000E-01  -5.00000000000000E-01   0.00000000000000E+00   0.00000000000000E+00
      0.00000000000000E+00   0.00000000000000E+00   0.00000000000000E+00  -4.12853505634930E-16
      6.62295992255913E-01
      0.00000000000000E+00   0.00000000000000E+00   0.00000000000000E+00   0.00000000000000E+00  -8.44640528430970E-16
     -2.34215746272827E-20  -8.44663950005597E-16   8.96644578080081E-16   6.62295992255913E-01   6.62295992255913E-01
      0.00000000000000E+00   0.00000000000000E+00   8.15553786972901E-16   8.67196841410525E-21   8.15562458941315E-16
      1.52899255280740E-15  -5.00000000000000E-01  -5.00000000000000E-01   0.00000000000000E+00   0.00000000000000E+00
      0.00000000000000E+00   0.00000000000000E+00   0.00000000000000E+00  -4.25282578551309E-16
      7.67325624683155E-01
      0.00000000000000E+00   0.00000000000000E+00   0.00000000000000E+00   0.00000000000000E+00  -9.34753991174063E-16
     -2.50700866863744E-20  -9.34779061260750E-16   8.95862379833078E-16   7.67325624683155E-01   7.67325624683155E-01
      0.00000000000000E+00   0.00000000000000E+00   8.79469305022028E-16   8.72069305256531E-21   8.79478025715080E-16
      1.58798380341950E-15  -5.00000000000000E-01  -5.00000000000000E-01   0.00000000000000E+00   0.00000000000000E+00
      0.00000000000000E+00   0.00000000000000E+00   0.00000000000000E+00  -4.40837051368733E-16
      8.89159998298756E-01
      0.00000000000000E+00   0.00000000000000E+00   0.00000000000000E+00   0.00000000000000E+00  -1.07718975265672E-15
     -2.94466779672369E-20  -1.07721919933469E-15   8.93951796155494E-16   8.89159998298756E-01   8.89159998298756E-01
      0.00000000000000E+00   0.00000000000000E+00   1.06049625760043E-15   8.76784287945722E-21   1.06050502544331E-15
      1.65395980543618E-15  -5.00000000000000E-01  -5.00000000000000E-01   0.00000000000000E+00   0.00000000000000E+00
      0.00000000000000E+00   0.00000000000000E+00   0.00000000000000E+00  -4.60949858179040E-16
      1.00000000000000E+00
      0.00000000000000E+00   0.00000000000000E+00   0.00000000000000E+00   0.00000000000000E+00  -1.19882222046895E-15
     -3.29078991577754E-20  -1.19885512836810E-15   8.92584471625523E-16   1.00000000000000E+00   1.00000000000000E+00
      0.00000000000000E+00   0.00000000000000E+00   1.17773903770107E-15   8.80443378322011E-21   1.17774784213485E-15
      1.71254416378571E-15  -5.00000000000000E-01  -5.00000000000000E-01   0.00000000000000E+00   0.00000000000000E+00
      0.00000000000000E+00   0.00000000000000E+00   0.00000000000000E+00  -4.78958925672511E-16
      0.00000000000000E+00
      0.00000000000000E+00   0.00000000000000E+00   0.00000000000000E+00   0.00000000000000E+00  -1.15956273825642E-15
     -3.29078904901545E-20  -1.15959564614691E-15   8.92584474908183E-16   1.00000000000000E+00   1.00000000000000E+00
      0.00000000000000E+00   0.00000000000000E+00   1.20372340907681E-15   8.80443378486357E-21   1.20373221351060E-15
      1.71254416583055E-15  -5.00000000000000E-01  -5.00000000000000E-01   0.00000000000000E+00   0.00000000000000E+00
      0.00000000000000E+00   0.00000000000000E+00   0.00000000000000E+00  -4.78958920756044E-16
      1.00000000000000E-03
      0.00000000000000E+00   0.00000000000000E+00   0.00000000000000E+00   0.00000000000000E+00  -1.17205950964248E-15
     -3.29021937506769E-20  -1.17209241183623E-15   8.92555214855935E-16   1.00000000000000E+00   1.00000000000000E+00
      0.00000000000000E+00   0.00000000000000E+00   1.21575806564132E-15   8.80443472054974E-21   1.21576687007604E-15
      1.71225604576495E-15  -4.98000000000000E-01  -4.98000000000000E-01   0.00000000000000E+00   0.00000000000000E+00
      0.00000000000000E+00   0.00000000000000E+00   0.00000000000000E+00  -4.76782993443960E-16
      2.17333333333333E-03
      0.00000000000000E+00   0.00000000000000E+00   0.00000000000000E+00   0.00000000000000E+00  -1.17637931228260E-15
     -3.28954597487169E-20  -1.17641220774235E-15   8.92520788137312E-16   1.00000000000000E+00   1.00000000000000E+00
      0.00000000000000E+00   0.00000000000000E+00   1.11805307302713E-15   8.80443582755393E-21   1.11806187746295E-15
      1.71191771907417E-15  -4.95653333333333E-01  -4.95653333333333E-01   0.00000000000000E+00   0.00000000000000E+00
      0.00000000000000E+00   0.00000000000000E+00   0.00000000000000E+00  -4.74230451032691E-16
      3.58133333333333E-03
      0.00000000000000E+00   0.00000000000000E+00   0.00000000000000E+00   0.00000000000000E+00  -1.17396195256427E-15
     -3.28873304457034E-20  -1.17399483989472E-15   8.92479330768530E-16   1.00000000000000E+00   1.00000000000000E+00
      0.00000000000000E+00   0.00000000000000E+00   1.20029643848116E-15   8.80443716470736E-21   1.20030524291833E-15
      1.71151134962336E-15  -4.92837333333333E-01  -4.92837333333333E-01   0.00000000000000E+00   0.00000000000000E+00
      0.00000000000000E+00   0.00000000000000E+00   0.00000000000000E+00  -4.71168184055497E-16
      5.27093333333333E-03
      0.00000000000000E+00   0.00000000000000E+00   0.00000000000000E+00   0.00000000000000E+00  -1.17182839335714E-15
     -3.28774890611832E-20  -1.17186127084620E-15   8.92429376310727E-16   1.00000000000000E+00   1.00000000000000E+00
      0.00000000000000E+00   0.00000000000000E+00   1.18867243618168E-15   8.80443878500785E-21   1.18868124062047E-15
      1.71102317794812E-15  -4.89458133333333E-01  -4.89458133333333E-01   0.00000000000000E+00   0.00000000000000E+00
      0.00000000000000E+00   0.00000000000000E+00   0.00000000000000E+00  -4.67494572639008E-16
      7.29845333333333E-03
      0.00000000000000E+00   0.00000000000000E+00   0.00000000000000E+00   0.00000000000000E+00  -1.16428658262181E-15
     -3.28655510680157E-20  -1.16431944817287E-15   8.92369131927742E-16   1.00000000000000E+00   1.00000000000000E+00
      0.00000000000000E+00   0.00000000000000E+00   1.20646168748438E-15   8.80444075281890E-21   1.20647049192513E-15
      1.71043663102043E-15  -4.85403093333333E-01  -4.85403093333333E-01   0.00000000000000E+00   0.00000000000000E+00
      0.00000000000000E+00   0.00000000000000E+00   0.00000000000000E+00  -4.63087816482096E-16
      9.73147733333333E-03
      0.00000000000000E+00   0.00000000000000E+00   0.00000000000000E+00   0.00000000000000E+00  -1.19672176243835E-15
     -3.28511443825515E-20  -1.19675461358274E-15   8.92296360780080E-16   1.00000000000000E+00   1.00000000000000E+00
      0.00000000000000E+00   0.00000000000000E+00   1.16090802789271E-15   8.80444312832383E-21   1.16091683233584E-15
      1.70973171475935E-15  -4.80537045333333E-01  -4.80537045333333E-01   0.00000000000000E+00   0.00000000000000E+00
      0.00000000000000E+00   0.00000000000000E+00   0.00000000000000E+00  -4.57802012830895E-16
      1.26186658133333E-02
      0.00000000000000E+00   0.00000000000000E+00   0.00000000000000E+00   0.00000000000000E+00  -1.17485351260273E-15
     -3.28337020737123E-20  -1.17488634630480E-15   8.92209403254118E-16   1.00000000000000E+00   1.00000000000000E+00
      0.00000000000000E+00   0.00000000000000E+00   1.19496434050061E-15   8.80444601130696E-21   1.19497314494662E-15
      1.70889381916510E-15  -4.74762668373333E-01  -4.74762668373333E-01   0.00000000000000E+00   0.00000000000000E+00
      0.00000000000000E+00   0.00000000000000E+00   0.00000000000000E+00  -4.51532615487907E-16
      1.60447961429333E-02
      0.00000000000000E+00   0.00000000000000E+00   0.00000000000000E+00   0.00000000000000E+00  -1.16942351574209E-15
     -3.28126253779833E-20  -1.16945632836747E-15   8.92105300147287E-16   1.00000000000000E+00   1.00000000000000E+00
      0.00000000000000E+00   0.00000000000000E+00   1.19879439549720E-15   8.80444950205942E-21   1.19880319994670E-15
      1.70789760640344E-15  -4.67910407714133E-01  -4.67910407714133E-01   0.00000000000000E+00   0.00000000000000E+00
      0.00000000000000E+00   0.00000000000000E+00   0.00000000000000E+00  -4.44097287124960E-16
      2.01104708007253E-02
      0.00000000000000E+00   0.00000000000000E+00   0.00000000000000E+00   0.00000000000000E+00  -1.17741743844014E-15
     -3.27870637539968E-20  -1.17745022550390E-15   8.91980443719318E-16   1.00000000000000E+00   1.00000000000000E+00
      0.00000000000000E+00   0.00000000000000E+00   1.20643561520670E-15   8.80445374605867E-21   1.20644441966045E-15
      1.70671287318747E-15  -4.59779058398549E-01  -4.59779058398549E-01   0.00000000000000E+00   0.00000000000000E+00
      0.00000000000000E+00   0.00000000000000E+00   0.00000000000000E+00  -4.35280081692468E-16
      2.49350713946385E-02
      0.00000000000000E+00   0.00000000000000E+00   0.00000000000000E+00   0.00000000000000E+00  -1.17498359932887E-15
     -3.27559225429789E-20  -1.17501635525141E-15   8.91830362058578E-16   1.00000000000000E+00   1.00000000000000E+00
      0.00000000000000E+00   0.00000000000000E+00   1.15589415203949E-15   8.80445893206390E-21   1.15590295649842E-15
      1.70530358256134E-15  -4.50129857210723E-01  -4.50129857210723E-01   0.00000000000000E+00   0.00000000000000E+00
      0.00000000000000E+00   0.00000000000000E+00   0.00000000000000E+00  -4.24825415122965E-16
      3.06602640994155E-02
      0.00000000000000E+00   0.00000000000000E+00   0.00000000000000E+00   0.00000000000000E+00  -1.17761190183937E-15
     -3.27177772136715E-20  -1.17764461961659E-15   8.91649458815306E-16   1.00000000000000E+00   1.00000000000000E+00
      0.00000000000000E+00   0.00000000000000E+00   1.12286851573338E-15   8.80446530792598E-21   1.12287732019869E-15
      1.70362672594005E-15  -4.38679471801169E-01  -4.38679471801169E-01   0.00000000000000E+00   0.00000000000000E+00
      0.00000000000000E+00   0.00000000000000E+00   0.00000000000000E+00  -4.12430963991397E-16
      3.74541594424175E-02
      0.00000000000000E+00   0.00000000000000E+00   0.00000000000000E+00   0.00000000000000E+00  -1.17578642376014E-15
     -3.26707318157741E-20  -1.17581909449195E-15   8.91430654195344E-16   1.00000000000000E+00   1.00000000000000E+00
      0.00000000000000E+00   0.00000000000000E+00   1.14569505722745E-15   8.80447320705472E-21   1.14570386170065E-15
      1.70163096647387E-15  -4.25091681115165E-01  -4.25091681115165E-01   0.00000000000000E+00   0.00000000000000E+00
      0.00000000000000E+00   0.00000000000000E+00   0.00000000000000E+00  -3.97739393222436E-16
      4.55162485827798E-02
      0.00000000000000E+00   0.00000000000000E+00   0.00000000000000E+00   0.00000000000000E+00  -1.18227138034391E-15
     -3.26122183510517E-20  -1.18230399256227E-15   8.91164863542900E-16   1.00000000000000E+00   1.00000000000000E+00
      0.00000000000000E+00   0.00000000000000E+00   1.17194657903320E-15   8.80448308633292E-21   1.17195538351628E-15
      1.69925501274405E-15  -4.08967502834440E-01  -4.08967502834440E-01   0.00000000000000E+00   0.00000000000000E+00
      0.00000000000000E+00   0.00000000000000E+00   0.00000000000000E+00  -3.80328823817926E-16
      5.50832610293431E-02
      0.00000000000000E+00   0.00000000000000E+00   0.00000000000000E+00   0.00000000000000E+00  -1.19810016207277E-15
     -3.25386600708446E-20  -1.19813270073284E-15   8.90840233752910E-16   1.00000000000000E+00   1.00000000000000E+00