DF-ISE text

Info {
  version   = 1.0
  type      = xyplot
  datasets  = [
    "time"
    "S OuterVoltage" "S InnerVoltage" "S QuasiFermiPotential" "S DisplacementCurrent" "S eCurrent"
    "S hCurrent" "S TotalCurrent" "S Charge" "D OuterVoltage" "D InnerVoltage"
    "D QuasiFermiPotential" "D DisplacementCurrent" "D eCurrent" "D hCurrent" "D TotalCurrent"
    "D Charge" "G OuterVoltage" "G InnerVoltage" "G QuasiFermiPotential" "G DisplacementCurrent"
    "G eCurrent" "G hCurrent" "G TotalCurrent" "G Charge" ]
  functions = [
    Time
    OuterVoltage InnerVoltage QuasiFermiPotential DisplacementCurrent eCurrent
    hCurrent TotalCurrent Charge OuterVoltage InnerVoltage
    QuasiFermiPotential DisplacementCurrent eCurrent hCurrent TotalCurrent
    Charge OuterVoltage InnerVoltage QuasiFermiPotential DisplacementCurrent
    eCurrent hCurrent TotalCurrent Charge ]
}

Data {
      0.00000000000000E+00
      0.00000000000000E+00   0.00000000000000E+00   0.00000000000000E+00   0.00000000000000E+00  -7.27863161233269E-23
     -2.33689504351674E-35  -7.27863161233502E-23   3.23042129683154E-16   0.00000000000000E+00   0.00000000000000E+00
      0.00000000000000E+00   0.00000000000000E+00   8.71556851403575E-20  -8.00149810969156E-35   8.71556851403574E-20
      3.71361546361859E-16  -5.00000000000000E-01  -5.00000000000000E-01   0.00000000000000E+00   0.00000000000000E+00
      0.00000000000000E+00   0.00000000000000E+00   0.00000000000000E+00  -2.92121898427152E-16
      0.00000000000000E+00
      0.00000000000000E+00   0.00000000000000E+00   0.00000000000000E+00   0.00000000000000E+00   9.79812319471799E-19
     -1.22280908597903E-31   9.79812319471677E-19   3.23042129662992E-16   0.00000000000000E+00   0.00000000000000E+00
      0.00000000000000E+00   0.00000000000000E+00   7.79232209619519E-19  -1.22644505868232E-31   7.79232209619396E-19
      3.71361546342634E-16  -5.00000000000000E-01  -5.00000000000000E-01   0.00000000000000E+00   0.00000000000000E+00
      0.00000000000000E+00   0.00000000000000E+00   0.00000000000000E+00  -2.92121898435488E-16
      1.00000000000000E-03
      0.00000000000000E+00   0.00000000000000E+00   0.00000000000000E+00   0.00000000000000E+00  -5.38953957916919E-19
     -2.40552129818013E-21  -5.41359479215099E-19   3.22945199955413E-16   1.00000000000000E-03   1.00000000000000E-03
      0.00000000000000E+00   0.00000000000000E+00   9.60974565746815E-20   8.57340641901095E-23   9.61831906388716E-20
      3.71428449398063E-16  -5.00000000000000E-01  -5.00000000000000E-01   0.00000000000000E+00   0.00000000000000E+00
      0.00000000000000E+00   0.00000000000000E+00   0.00000000000000E+00  -2.92981536832106E-16
      2.17333333333333E-03
      0.00000000000000E+00   0.00000000000000E+00   0.00000000000000E+00   0.00000000000000E+00  -1.62721139898437E-18
     -5.34565165725119E-21  -1.63255705064162E-18   3.22831202042235E-16   2.17333333333333E-03   2.17333333333333E-03
      0.00000000000000E+00   0.00000000000000E+00   1.30893256904599E-18   1.85208943111949E-22   1.30911777798910E-18
      3.71506734119879E-16  -5.00000000000000E-01  -5.00000000000000E-01   0.00000000000000E+00   0.00000000000000E+00
      0.00000000000000E+00   0.00000000000000E+00   0.00000000000000E+00  -2.93991918885247E-16
      3.56568888888889E-03
      0.00000000000000E+00   0.00000000000000E+00   0.00000000000000E+00   0.00000000000000E+00  -1.05039127399251E-18
     -9.00694519037734E-21  -1.05939821918289E-18   3.22695553794088E-16   3.56568888888889E-03   3.56568888888889E-03
      0.00000000000000E+00   0.00000000000000E+00   1.40423084841660E-18   3.01768418337341E-22   1.40453261683493E-18
      3.71599335051744E-16  -5.00000000000000E-01  -5.00000000000000E-01   0.00000000000000E+00   0.00000000000000E+00
      0.00000000000000E+00   0.00000000000000E+00   0.00000000000000E+00  -2.95193303970528E-16
      5.21795081481481E-03
      0.00000000000000E+00   0.00000000000000E+00   0.00000000000000E+00   0.00000000000000E+00  -2.80687121442968E-18
     -1.36075114517480E-20  -2.82047872588143E-18   3.22534068126171E-16   5.21795081481481E-03   5.21795081481481E-03
      0.00000000000000E+00   0.00000000000000E+00   1.75615478847566E-18   4.38135713217649E-22   1.75659292418888E-18
      3.71708810176717E-16  -5.00000000000000E-01  -5.00000000000000E-01   0.00000000000000E+00   0.00000000000000E+00
      0.00000000000000E+00   0.00000000000000E+00   0.00000000000000E+00  -2.96622260342740E-16
      7.17863496691358E-03
      0.00000000000000E+00   0.00000000000000E+00   0.00000000000000E+00   0.00000000000000E+00  -1.57072020230373E-18
     -1.94503682247743E-20  -1.59017057052850E-18   3.22341720641873E-16   7.17863496691358E-03   7.17863496691358E-03
      0.00000000000000E+00   0.00000000000000E+00   1.94356066918250E-18   5.97444178459847E-22   1.94415811336096E-18
      3.71838152984493E-16  -5.00000000000000E-01  -5.00000000000000E-01   0.00000000000000E+00   0.00000000000000E+00
      0.00000000000000E+00   0.00000000000000E+00   0.00000000000000E+00  -2.98322511896154E-16
      9.50531349407078E-03
      0.00000000000000E+00   0.00000000000000E+00   0.00000000000000E+00   0.00000000000000E+00  -4.36568255024033E-18
     -2.69655487906312E-20  -4.39264809903096E-18   3.22112473079132E-16   9.50531349407078E-03   9.50531349407078E-03
      0.00000000000000E+00   0.00000000000000E+00   2.55653186606835E-18   7.83334172916688E-22   2.55731520024126E-18
      3.71990859910790E-16  -5.00000000000000E-01  -5.00000000000000E-01   0.00000000000000E+00   0.00000000000000E+00
      0.00000000000000E+00   0.00000000000000E+00   0.00000000000000E+00  -3.00346378718273E-16
      1.22663053462973E-02
      0.00000000000000E+00   0.00000000000000E+00   0.00000000000000E+00   0.00000000000000E+00  -4.44867424116132E-18
     -3.67779513578786E-20  -4.48545219251919E-18   3.21839057201322E-16   1.22663053462973E-02   1.22663053462973E-02
      0.00000000000000E+00   0.00000000000000E+00   4.12986593817836E-18   1.00011638742949E-21   4.13086605456579E-18
      3.72171007050629E-16  -5.00000000000000E-01  -5.00000000000000E-01   0.00000000000000E+00   0.00000000000000E+00
      0.00000000000000E+00   0.00000000000000E+00   0.00000000000000E+00  -3.02756508851181E-16
      1.55426823442728E-02
      0.00000000000000E+00   0.00000000000000E+00   0.00000000000000E+00   0.00000000000000E+00  -5.81510915701032E-18
     -4.98198402754415E-20  -5.86492899728576E-18   3.21512710206324E-16   1.55426823442728E-02   1.55426823442728E-02
      0.00000000000000E+00   0.00000000000000E+00   6.31012990199060E-18   1.25306116842525E-21   6.31138296315903E-18
      3.72383338251533E-16  -5.00000000000000E-01  -5.00000000000000E-01   0.00000000000000E+00   0.00000000000000E+00
      0.00000000000000E+00   0.00000000000000E+00   0.00000000000000E+00  -3.05627950164089E-16
      1.94306497152037E-02
      0.00000000000000E+00   0.00000000000000E+00   0.00000000000000E+00   0.00000000000000E+00  -7.77987048480842E-18
     -6.75233326498684E-20  -7.84739381745829E-18   3.21122851283599E-16   1.94306497152037E-02   1.94306497152037E-02
      0.00000000000000E+00   0.00000000000000E+00   7.44197624013740E-18   1.54892386276778E-21   7.44352516400016E-18
      3.72633368583672E-16  -5.00000000000000E-01  -5.00000000000000E-01   0.00000000000000E+00   0.00000000000000E+00
      0.00000000000000E+00   0.00000000000000E+00   0.00000000000000E+00  -3.09050607210032E-16
      2.40443709953751E-02
      0.00000000000000E+00   0.00000000000000E+00   0.00000000000000E+00   0.00000000000000E+00  -8.82173158410759E-18
     -9.21612964323012E-20  -8.91389288053989E-18   3.20656688005436E-16   2.40443709953751E-02   2.40443709953751E-02
      0.00000000000000E+00   0.00000000000000E+00   1.01479128657409E-17   1.89690747170950E-21   1.01498097732126E-17
      3.72927511126307E-16  -5.00000000000000E-01  -5.00000000000000E-01   0.00000000000000E+00   0.00000000000000E+00
      0.00000000000000E+00   0.00000000000000E+00   0.00000000000000E+00  -3.13132109191654E-16
      2.95193202478451E-02
      0.00000000000000E+00   0.00000000000000E+00   0.00000000000000E+00   0.00000000000000E+00  -1.19205936808098E-17
     -1.27474394397860E-19  -1.20480680752076E-17   3.20098742051009E-16   2.95193202478451E-02   2.95193202478451E-02
      0.00000000000000E+00   0.00000000000000E+00   1.10943348084800E-17   2.31043371212132E-21   1.10966452421922E-17
      3.73273243205573E-16  -5.00000000000000E-01  -5.00000000000000E-01   0.00000000000000E+00   0.00000000000000E+00
      0.00000000000000E+00   0.00000000000000E+00   0.00000000000000E+00  -3.18001064072894E-16
      3.60162600274429E-02
      0.00000000000000E+00   0.00000000000000E+00   0.00000000000000E+00   0.00000000000000E+00  -1.53131154293344E-17
     -1.79873318272350E-19  -1.54929887476068E-17   3.19430288894175E-16   3.60162600274429E-02   3.60162600274429E-02
      0.00000000000000E+00   0.00000000000000E+00   1.50527259428887E-17   2.81040442571834E-21   1.50555363473145E-17
      3.73679344761413E-16  -5.00000000000000E-01  -5.00000000000000E-01   0.00000000000000E+00   0.00000000000000E+00
      0.00000000000000E+00   0.00000000000000E+00   0.00000000000000E+00  -3.23810557670765E-16
      4.37259618992322E-02
      0.00000000000000E+00   0.00000000000000E+00   0.00000000000000E+00   0.00000000000000E+00  -1.89096635511194E-17
     -2.60850337044987E-19  -1.91705138881644E-17   3.18628721557139E-16   4.37259618992322E-02   4.37259618992322E-02
      0.00000000000000E+00   0.00000000000000E+00   1.85728013415152E-17   3.43120014322872E-21   1.85762325416584E-17
      3.74156274592243E-16  -5.00000000000000E-01  -5.00000000000000E-01   0.00000000000000E+00   0.00000000000000E+00
      0.00000000000000E+00   0.00000000000000E+00   0.00000000000000E+00  -3.30741508528394E-16
      5.28748081204222E-02
      0.00000000000000E+00   0.00000000000000E+00   0.00000000000000E+00   0.00000000000000E+00  -2.28314587682761E-17
     -3.92056777888502E-19  -2.32235155461646E-17   3.17666892188744E-16   5.28748081204222E-02   5.28748081204222E-02
      0.00000000000000E+00   0.00000000000000E+00   2.35915690602803E-17   4.23174434107104E-21   2.35958008046214E-17
      3.74716819325614E-16  -5.00000000000000E-01  -5.00000000000000E-01   0.00000000000000E+00   0.00000000000000E+00
      0.00000000000000E+00   0.00000000000000E+00   0.00000000000000E+00  -3.39004943372023E-16
      6.37314389695677E-02
      0.00000000000000E+00   0.00000000000000E+00   0.00000000000000E+00   0.00000000000000E+00  -3.05275797470268E-17
     -6.16548966621852E-19  -3.11441287136487E-17   3.16512596300312E-16   6.37314389695677E-02   6.37314389695677E-02
      0.00000000000000E+00   0.00000000000000E+00   3.19623125377145E-17   5.31585704349763E-21   3.19676283947580E-17
      3.75377291312413E-16  -5.00000000000000E-01  -5.00000000000000E-01   0.00000000000000E+00   0.00000000000000E+00
      0.00000000000000E+00   0.00000000000000E+00   0.00000000000000E+00  -3.48841099384480E-16
      7.64698858325651E-02
      0.00000000000000E+00   0.00000000000000E+00   0.00000000000000E+00   0.00000000000000E+00  -4.09190894119835E-17
     -1.01926777738590E-18  -4.19383571893694E-17   3.15144291692723E-16   7.64698858325651E-02   7.64698858325651E-02
      0.00000000000000E+00   0.00000000000000E+00   4.19833140536454E-17   6.85020787191153E-21   4.19901642615173E-17
      3.76151057840156E-16  -5.00000000000000E-01  -5.00000000000000E-01   0.00000000000000E+00   0.00000000000000E+00
      0.00000000000000E+00   0.00000000000000E+00   0.00000000000000E+00  -3.60379649474497E-16
      9.14163301518153E-02
      0.00000000000000E+00   0.00000000000000E+00   0.00000000000000E+00   0.00000000000000E+00  -5.87854995405172E-17
     -1.78686278275633E-18  -6.05723623232735E-17   3.13527767357361E-16   9.14163301518153E-02   9.14163301518153E-02
      0.00000000000000E+00   0.00000000000000E+00   6.00018017579092E-17   9.14322945790933E-21   6.00109449873671E-17
      3.77067288117625E-16  -5.00000000000000E-01  -5.00000000000000E-01   0.00000000000000E+00   0.00000000000000E+00
      0.00000000000000E+00   0.00000000000000E+00   0.00000000000000E+00  -3.73831051236340E-16
      1.08953491486402E-01
      0.00000000000000E+00   0.00000000000000E+00   0.00000000000000E+00   0.00000000000000E+00  -8.81163681764278E-17
     -3.33889242032279E-18  -9.14552605967506E-17   3.11633935527096E-16   1.08953491486402E-01   1.08953491486402E-01
      0.00000000000000E+00   0.00000000000000E+00   9.01009567265346E-17   1.27290129817343E-20   9.01136857395164E-17
      3.78173278653320E-16  -5.00000000000000E-01  -5.00000000000000E-01   0.00000000000000E+00   0.00000000000000E+00
      0.00000000000000E+00   0.00000000000000E+00   0.00000000000000E+00  -3.89327951451304E-16
      1.29530427452318E-01
      0.00000000000000E+00   0.00000000000000E+00   0.00000000000000E+00   0.00000000000000E+00  -1.34681966361398E-16
     -6.61780026360738E-18  -1.41299766625005E-16   3.09458941076216E-16   1.29530427452318E-01   1.29530427452318E-01
      0.00000000000000E+00   0.00000000000000E+00   1.41552007780659E-16   1.84753045301828E-20   1.41570483085189E-16
      3.79553349359827E-16  -5.00000000000000E-01  -5.00000000000000E-01   0.00000000000000E+00   0.00000000000000E+00
      0.00000000000000E+00   0.00000000000000E+00   0.00000000000000E+00  -4.06768388847246E-16
      1.53674032318992E-01
      0.00000000000000E+00   0.00000000000000E+00   0.00000000000000E+00   0.00000000000000E+00  -2.18751354747050E-16
     -1.35214763666088E-17  -2.32272831113659E-16   3.07075499445167E-16   1.53674032318992E-01   1.53674032318992E-01
      0.00000000000000E+00   0.00000000000000E+00   2.31413318557680E-16   2.74972356994613E-20   2.31440815793379E-16
      3.81368551483242E-16  -5.00000000000000E-01  -5.00000000000000E-01   0.00000000000000E+00   0.00000000000000E+00
      0.00000000000000E+00   0.00000000000000E+00   0.00000000000000E+00  -4.25462594916639E-16
      1.82002528695889E-01
      0.00000000000000E+00   0.00000000000000E+00   0.00000000000000E+00   0.00000000000000E+00  -3.50027425281392E-16
     -2.64510756892425E-17  -3.76478500970635E-16   3.04727471344677E-16   1.82002528695889E-01   1.82002528695889E-01
      0.00000000000000E+00   0.00000000000000E+00   3.74929069741223E-16   4.00397227585006E-20   3.74969109463982E-16
      3.83918839629475E-16  -5.00000000000000E-01  -5.00000000000000E-01   0.00000000000000E+00   0.00000000000000E+00
      0.00000000000000E+00   0.00000000000000E+00   0.00000000000000E+00  -4.43549044967790E-16
      2.15241297778115E-01
      0.00000000000000E+00   0.00000000000000E+00   0.00000000000000E+00   0.00000000000000E+00  -5.10586423458681E-16
     -4.40446352100115E-17  -5.54631058668692E-16   3.02854574496505E-16   2.15241297778115E-01   2.15241297778115E-01
      0.00000000000000E+00   0.00000000000000E+00   5.55949486983970E-16   5.28348233630017E-20   5.56002321807333E-16
      3.87637985920933E-16  -5.00000000000000E-01  -5.00000000000000E-01   0.00000000000000E+00   0.00000000000000E+00
      0.00000000000000E+00   0.00000000000000E+00   0.00000000000000E+00  -4.57981606393970E-16
      2.53798269913498E-01
      0.00000000000000E+00   0.00000000000000E+00   0.00000000000000E+00   0.00000000000000E+00  -6.46972086782478E-16
     -5.81505581674461E-17  -7.05122644949924E-16   3.01762793814327E-16   2.53798269913498E-01   2.53798269913498E-01
      0.00000000000000E+00   0.00000000000000E+00   7.06074847632520E-16   6.05821958593523E-20   7.06135429828380E-16
      3.92768398909724E-16  -5.00000000000000E-01  -5.00000000000000E-01   0.00000000000000E+00   0.00000000000000E+00
      0.00000000000000E+00   0.00000000000000E+00   0.00000000000000E+00  -4.66836647463332E-16
      2.98524357590542E-01
      0.00000000000000E+00   0.00000000000000E+00   0.00000000000000E+00   0.00000000000000E+00  -7.41230409674250E-16
     -6.50322628791342E-17  -8.06262672553385E-16   3.01240639754079E-16   2.98524357590542E-01   2.98524357590542E-01
      0.00000000000000E+00   0.00000000000000E+00   8.05968418467209E-16   6.33030953801886E-20   8.06031721562589E-16
      3.99226618795147E-16  -5.00000000000000E-01  -5.00000000000000E-01   0.00000000000000E+00   0.00000000000000E+00
      0.00000000000000E+00   0.00000000000000E+00   0.00000000000000E+00  -4.71764941877412E-16
      3.50406619295913E-01
      0.00000000000000E+00   0.00000000000000E+00   0.00000000000000E+00   0.00000000000000E+00  -8.19147322779005E-16
     -6.78263726047755E-17  -8.86973695383780E-16   3.00935328214781E-16   3.50406619295913E-01   3.50406619295913E-01
      0.00000000000000E+00   0.00000000000000E+00   8.86933413437740E-16   6.40048133205019E-20   8.86997418251061E-16
      4.06859016835076E-16  -5.00000000000000E-01  -5.00000000000000E-01   0.00000000000000E+00   0.00000000000000E+00
      0.00000000000000E+00   0.00000000000000E+00   0.00000000000000E+00  -4.75257441615442E-16
      4.10590042874143E-01
      0.00000000000000E+00   0.00000000000000E+00   0.00000000000000E+00   0.00000000000000E+00  -9.15261969718686E-16
     -6.92831317573604E-17  -9.84545101476046E-16   3.00654082344672E-16   4.10590042874143E-01   4.10590042874143E-01
      0.00000000000000E+00   0.00000000000000E+00   9.86619716307855E-16   6.42599512410946E-20   9.86683976259096E-16
      4.15652122732306E-16  -5.00000000000000E-01  -5.00000000000000E-01   0.00000000000000E+00   0.00000000000000E+00
      0.00000000000000E+00   0.00000000000000E+00   0.00000000000000E+00  -4.78619807057364E-16
      4.80402814224890E-01
      0.00000000000000E+00   0.00000000000000E+00   0.00000000000000E+00   0.00000000000000E+00  -1.05448511603946E-15
     -7.04759082423889E-17  -1.12496102428184E-15   3.00315035347814E-16   4.80402814224890E-01   4.80402814224890E-01
      0.00000000000000E+00   0.00000000000000E+00   1.12332773528586E-15   6.44665179484700E-20   1.12339220180381E-15
      4.25676841499060E-16  -5.00000000000000E-01  -5.00000000000000E-01   0.00000000000000E+00   0.00000000000000E+00
      0.00000000000000E+00   0.00000000000000E+00   0.00000000000000E+00  -4.82335250918916E-16
      5.61385628991756E-01
      0.00000000000000E+00   0.00000000000000E+00   0.00000000000000E+00   0.00000000000000E+00  -1.27097129606602E-15
     -7.15431318699726E-17  -1.34251442793599E-15   2.99879752622776E-16   5.61385628991756E-01   5.61385628991756E-01
      0.00000000000000E+00   0.00000000000000E+00   1.34081716909067E-15   6.47252286681079E-20   1.34088189431934E-15
      4.37007378104508E-16  -5.00000000000000E-01  -5.00000000000000E-01   0.00000000000000E+00   0.00000000000000E+00
      0.00000000000000E+00   0.00000000000000E+00   0.00000000000000E+00  -4.86508771870575E-16
      6.55325694121322E-01
      0.00000000000000E+00   0.00000000000000E+00   0.00000000000000E+00   0.00000000000000E+00  -1.63002019643527E-15
     -7.24816830918100E-17  -1.70250187952708E-15   2.99306860105552E-16   6.55325694121322E-01   6.55325694121322E-01
      0.00000000000000E+00   0.00000000000000E+00   1.70267635709032E-15   6.50361758425762E-20   1.70274139326616E-15
      4.49610071064643E-16  -5.00000000000000E-01  -5.00000000000000E-01   0.00000000000000E+00   0.00000000000000E+00
      0.00000000000000E+00   0.00000000000000E+00   0.00000000000000E+00  -4.91147185480691E-16
      7.63043635469890E-01
      0.00000000000000E+00   0.00000000000000E+00   0.00000000000000E+00   0.00000000000000E+00  -2.26981849226159E-15
     -7.36231463852120E-17  -2.34344163864680E-15   2.98543189079367E-16   7.63043635469890E-01   7.63043635469890E-01
      0.00000000000000E+00   0.00000000000000E+00   2.34452291447173E-15   6.53869994619702E-20   2.34458830147119E-15
      4.63038150651755E-16  -5.00000000000000E-01  -5.00000000000000E-01   0.00000000000000E+00   0.00000000000000E+00
      0.00000000000000E+00   0.00000000000000E+00   0.00000000000000E+00  -4.96197281259717E-16
      8.86560208216248E-01
      0.00000000000000E+00   0.00000000000000E+00   0.00000000000000E+00   0.00000000000000E+00  -3.49610152750224E-15
     -7.52139177137999E-17  -3.57131544521604E-15   2.97538644920091E-16   8.86560208216248E-01   8.86560208216248E-01
      0.00000000000000E+00   0.00000000000000E+00   3.57001103696170E-15   6.57859870836079E-20   3.57007682294878E-15
      4.76994885306844E-16  -5.00000000000000E-01  -5.00000000000000E-01   0.00000000000000E+00   0.00000000000000E+00
      0.00000000000000E+00   0.00000000000000E+00   0.00000000000000E+00  -5.01603091070471E-16
      1.00000000000000E+00
      0.00000000000000E+00   0.00000000000000E+00   0.00000000000000E+00   0.00000000000000E+00  -5.40172506058025E-15
     -7.66358023158617E-17  -5.47836086289611E-15   2.96517987242934E-16   1.00000000000000E+00   1.00000000000000E+00
      0.00000000000000E+00   0.00000000000000E+00   5.47789495724016E-15   6.61427681933849E-20   5.47796110000836E-15
      4.89093813022144E-16  -5.00000000000000E-01  -5.00000000000000E-01   0.00000000000000E+00   0.00000000000000E+00
      0.00000000000000E+00   0.00000000000000E+00   0.00000000000000E+00  -5.06378842709361E-16
      0.00000000000000E+00
      0.00000000000000E+00   0.00000000000000E+00   0.00000000000000E+00   0.00000000000000E+00  -5.40199317390105E-15
     -7.66357363360079E-17  -5.47862891023706E-15   2.96517989804402E-16   1.00000000000000E+00   1.00000000000000E+00
      0.00000000000000E+00   0.00000000000000E+00   5.47834577278614E-15   6.61427682365357E-20   5.47841191555438E-15
      4.89093814329187E-16  -5.00000000000000E-01  -5.00000000000000E-01   0.00000000000000E+00   0.00000000000000E+00
      0.00000000000000E+00   0.00000000000000E+00   0.00000000000000E+00  -5.06378821708462E-16
      1.00000000000000E-03
      0.00000000000000E+00   0.00000000000000E+00   0.00000000000000E+00   0.00000000000000E+00  -5.43347436091018E-15
     -7.66458565092591E-17  -5.51012021741944E-15   2.96450277099363E-16   1.00000000000000E+00   1.00000000000000E+00
      0.00000000000000E+00   0.00000000000000E+00   5.50966740890572E-15   6.61412511886942E-20   5.50973355015691E-15
      4.89017500045454E-16  -4.98000000000000E-01  -4.98000000000000E-01   0.00000000000000E+00   0.00000000000000E+00
      0.00000000000000E+00   0.00000000000000E+00   0.00000000000000E+00  -5.04354209844957E-16
      2.17333333333333E-03
      0.00000000000000E+00   0.00000000000000E+00   0.00000000000000E+00   0.00000000000000E+00  -5.47079224119191E-15
     -7.66581033844152E-17  -5.54745034457632E-15   2.96370276147160E-16   1.00000000000000E+00   1.00000000000000E+00
      0.00000000000000E+00   0.00000000000000E+00   5.54494506493781E-15   6.61394614682099E-20   5.54501120439928E-15
      4.88927573410235E-16  -4.95653333333333E-01  -4.95653333333333E-01   0.00000000000000E+00   0.00000000000000E+00
      0.00000000000000E+00   0.00000000000000E+00   0.00000000000000E+00  -5.01982334183215E-16
      3.56568888888889E-03
      0.00000000000000E+00   0.00000000000000E+00   0.00000000000000E+00   0.00000000000000E+00  -5.51437443112664E-15
     -7.66729942151813E-17  -5.59104742534182E-15   2.96274570601727E-16   1.00000000000000E+00   1.00000000000000E+00
      0.00000000000000E+00   0.00000000000000E+00   5.58977512550049E-15   6.61373239876437E-20   5.58984126282447E-15
      4.88820317779607E-16  -4.92868622222222E-01  -4.92868622222222E-01   0.00000000000000E+00   0.00000000000000E+00
      0.00000000000000E+00   0.00000000000000E+00   0.00000000000000E+00  -4.99172855606800E-16
      5.21795081481481E-03
      0.00000000000000E+00   0.00000000000000E+00   0.00000000000000E+00   0.00000000000000E+00  -5.56878443477140E-15
     -7.66912068071344E-17  -5.64547564157854E-15   2.96159904581908E-16   1.00000000000000E+00   1.00000000000000E+00
      0.00000000000000E+00   0.00000000000000E+00   5.64447142626557E-15   6.61347679374493E-20   5.64453756103350E-15
      4.88692264164504E-16  -4.89564098370370E-01  -4.89564098370370E-01   0.00000000000000E+00   0.00000000000000E+00
      0.00000000000000E+00   0.00000000000000E+00   0.00000000000000E+00  -4.95846300046160E-16
      7.17863496691358E-03
      0.00000000000000E+00   0.00000000000000E+00   0.00000000000000E+00   0.00000000000000E+00  -5.63445294187201E-15
     -7.67136108435438E-17  -5.71116655271556E-15   2.96022277426950E-16   1.00000000000000E+00   1.00000000000000E+00
      0.00000000000000E+00   0.00000000000000E+00   5.71204478938682E-15   6.61317067043032E-20   5.71211092109352E-15
      4.88539192767693E-16  -4.85642730066173E-01  -4.85642730066173E-01   0.00000000000000E+00   0.00000000000000E+00
      0.00000000000000E+00   0.00000000000000E+00   0.00000000000000E+00  -4.91909322715579E-16
      9.50531349407078E-03
      0.00000000000000E+00   0.00000000000000E+00   0.00000000000000E+00   0.00000000000000E+00  -5.71258270295753E-15
     -7.67413332381862E-17  -5.78932403619571E-15   2.95856745760068E-16   1.00000000000000E+00   1.00000000000000E+00
      0.00000000000000E+00   0.00000000000000E+00   5.79054987889740E-15   6.61280337463018E-20   5.79061600693115E-15
      4.88355945653520E-16  -4.80989373011858E-01  -4.80989373011858E-01   0.00000000000000E+00   0.00000000000000E+00
      0.00000000000000E+00   0.00000000000000E+00   0.00000000000000E+00  -4.87252554838975E-16
      1.22663053462973E-02
      0.00000000000000E+00   0.00000000000000E+00   0.00000000000000E+00   0.00000000000000E+00  -5.81292101247812E-15
     -7.67758629832020E-17  -5.88969687546133E-15   2.95657162615811E-16   1.00000000000000E+00   1.00000000000000E+00
      0.00000000000000E+00   0.00000000000000E+00   5.88967461947655E-15   6.61236171423808E-20   5.88974074309369E-15
      4.88136182030436E-16  -4.75467389307405E-01  -4.75467389307405E-01   0.00000000000000E+00   0.00000000000000E+00
      0.00000000000000E+00   0.00000000000000E+00   0.00000000000000E+00  -4.81748255562132E-16
      1.55426823442728E-02
      0.00000000000000E+00   0.00000000000000E+00   0.00000000000000E+00   0.00000000000000E+00  -5.93469548255577E-15
     -7.68191873112022E-17  -6.01151466986697E-15   2.95415832015826E-16   1.00000000000000E+00   1.00000000000000E+00
      0.00000000000000E+00   0.00000000000000E+00   6.01136012883089E-15   6.61182923325343E-20   6.01142624712323E-15
      4.87872055595800E-16  -4.68914635311454E-01  -4.68914635311454E-01   0.00000000000000E+00   0.00000000000000E+00
      0.00000000000000E+00   0.00000000000000E+00   0.00000000000000E+00  -4.75247820270291E-16
      1.94306497152037E-02
      0.00000000000000E+00   0.00000000000000E+00   0.00000000000000E+00   0.00000000000000E+00  -6.08759636871172E-15
     -7.68739863683802E-17  -6.16447035508010E-15   2.95123048183857E-16   1.00000000000000E+00   1.00000000000000E+00
      0.00000000000000E+00   0.00000000000000E+00   6.16192601747912E-15   6.61118523599710E-20   6.16199212933148E-15
      4.87553784946646E-16  -4.61138700569592E-01  -4.61138700569592E-01   0.00000000000000E+00   0.00000000000000E+00
      0.00000000000000E+00   0.00000000000000E+00   0.00000000000000E+00  -4.67579256032716E-16
      2.40443709953751E-02
      0.00000000000000E+00   0.00000000000000E+00   0.00000000000000E+00   0.00000000000000E+00  -6.27705818839192E-15
     -7.69439010018452E-17  -6.35400208939376E-15   2.94766479305471E-16   1.00000000000000E+00   1.00000000000000E+00
      0.00000000000000E+00   0.00000000000000E+00   6.35224185650421E-15   6.61040347234676E-20   6.35230796053893E-15
      4.87169079142038E-16  -4.51911258009250E-01  -4.51911258009250E-01   0.00000000000000E+00   0.00000000000000E+00
      0.00000000000000E+00   0.00000000000000E+00   0.00000000000000E+00  -4.58544794836688E-16
      2.94578039641095E-02
      0.00000000000000E+00   0.00000000000000E+00   0.00000000000000E+00   0.00000000000000E+00  -6.51837895742110E-15
     -7.70326178876874E-17  -6.59541157530879E-15   2.94335331597258E-16   1.00000000000000E+00   1.00000000000000E+00
      0.00000000000000E+00   0.00000000000000E+00   6.59532800651919E-15   6.60946125511301E-20   6.59539410113174E-15
      4.86707682689133E-16  -4.41084392071781E-01  -4.41084392071781E-01   0.00000000000000E+00   0.00000000000000E+00
      0.00000000000000E+00   0.00000000000000E+00   0.00000000000000E+00  -4.48037629311251E-16
      3.58095653140912E-02
      0.00000000000000E+00   0.00000000000000E+00   0.00000000000000E+00   0.00000000000000E+00  -6.83014762916549E-15
     -7.71455397119172E-17  -6.90729316887740E-15   2.93811730200250E-16   1.00000000000000E+00   1.00000000000000E+00
      0.00000000000000E+00   0.00000000000000E+00   6.90820654551996E-15   6.60832060463586E-20   6.90827262872601E-15
      4.86152181087577E-16  -4.28380869371818E-01  -4.28380869371818E-01   0.00000000000000E+00   0.00000000000000E+00
      0.00000000000000E+00   0.00000000000000E+00   0.00000000000000E+00  -4.35840925308080E-16
      4.32622986314031E-02
      0.00000000000000E+00   0.00000000000000E+00   0.00000000000000E+00   0.00000000000000E+00  -7.23416635219571E-15
     -7.72881502490167E-17  -7.31145450244473E-15   2.93172942247305E-16   1.00000000000000E+00   1.00000000000000E+00
      0.00000000000000E+00   0.00000000000000E+00   7.31086822332770E-15   6.60693333070778E-20   7.31093429266101E-15
      4.85480630429922E-16  -4.13475402737194E-01  -4.13475402737194E-01   0.00000000000000E+00   0.00000000000000E+00
      0.00000000000000E+00   0.00000000000000E+00   0.00000000000000E+00  -4.21714846706932E-16
      5.20068390570490E-02
      0.00000000000000E+00   0.00000000000000E+00   0.00000000000000E+00   0.00000000000000E+00  -7.77196883203428E-15
     -7.74617078606791E-17  -7.84943053989496E-15   2.92390116358632E-16   1.00000000000000E+00   1.00000000000000E+00