DF-ISE text

Info {
  version   = 1.0
  type      = xyplot
  datasets  = [
    "time"
    "S OuterVoltage" "S InnerVoltage" "S QuasiFermiPotential" "S DisplacementCurrent" "S eCurrent"
    "S hCurrent" "S TotalCurrent" "S Charge" "D OuterVoltage" "D InnerVoltage"
    "D QuasiFermiPotential" "D DisplacementCurrent" "D eCurrent" "D hCurrent" "D TotalCurrent"
    "D Charge" "G OuterVoltage" "G InnerVoltage" "G QuasiFermiPotential" "G DisplacementCurrent"
    "G eCurrent" "G hCurrent" "G TotalCurrent" "G Charge" ]
  functions = [
    Time
    OuterVoltage InnerVoltage QuasiFermiPotential DisplacementCurrent eCurrent
    hCurrent TotalCurrent Charge OuterVoltage InnerVoltage
    QuasiFermiPotential DisplacementCurrent eCurrent hCurrent TotalCurrent
    Charge OuterVoltage InnerVoltage QuasiFermiPotential DisplacementCurrent
    eCurrent hCurrent TotalCurrent Charge ]
}

Data {
      0.00000000000000E+00
      0.00000000000000E+00   0.00000000000000E+00   0.00000000000000E+00   0.00000000000000E+00   8.93709298965423E-20
     -8.16526154197633E-35   8.93709298965422E-20   3.38387484988280E-16   0.00000000000000E+00   0.00000000000000E+00
      0.00000000000000E+00   0.00000000000000E+00   8.66580882314493E-20   3.23977912745776E-35   8.66580882314494E-20
      3.83018702478151E-16  -5.00000000000000E-01  -5.00000000000000E-01   0.00000000000000E+00   0.00000000000000E+00
      0.00000000000000E+00   0.00000000000000E+00   0.00000000000000E+00  -2.39982860909476E-16
      0.00000000000000E+00
      0.00000000000000E+00   0.00000000000000E+00   0.00000000000000E+00   0.00000000000000E+00  -7.95450907640028E-19
      8.12201310974986E-33  -7.95450907640019E-19   3.38387484984344E-16   0.00000000000000E+00   0.00000000000000E+00
      0.00000000000000E+00   0.00000000000000E+00   9.49853901475955E-19   8.18650580765208E-33   9.49853901475963E-19
      3.83018702474269E-16  -5.00000000000000E-01  -5.00000000000000E-01   0.00000000000000E+00   0.00000000000000E+00
      0.00000000000000E+00   0.00000000000000E+00   0.00000000000000E+00  -2.39982860910180E-16
      1.00000000000000E-03
      0.00000000000000E+00   0.00000000000000E+00   0.00000000000000E+00   0.00000000000000E+00  -2.97785929571752E-21
     -2.44458864729319E-21  -5.42244794301071E-21   3.38248019181446E-16   1.00000000000000E-03   1.00000000000000E-03
      0.00000000000000E+00   0.00000000000000E+00  -2.54776317467688E-19   5.27706534737459E-23  -2.54723546814215E-19
      3.83066880099009E-16  -5.00000000000000E-01  -5.00000000000000E-01   0.00000000000000E+00   0.00000000000000E+00
      0.00000000000000E+00   0.00000000000000E+00   0.00000000000000E+00  -2.41053142317911E-16
      2.17333333333333E-03
      0.00000000000000E+00   0.00000000000000E+00   0.00000000000000E+00   0.00000000000000E+00  -2.44959308477513E-18
     -5.43226166055943E-21  -2.45502534643569E-18   3.38084178088754E-16   2.17333333333333E-03   2.17333333333333E-03
      0.00000000000000E+00   0.00000000000000E+00   1.35807331407615E-18   1.15337068817598E-22   1.35818865114497E-18
      3.83123397834675E-16  -5.00000000000000E-01  -5.00000000000000E-01   0.00000000000000E+00   0.00000000000000E+00
      0.00000000000000E+00   0.00000000000000E+00   0.00000000000000E+00  -2.42308975315337E-16
      3.58133333333333E-03
      0.00000000000000E+00   0.00000000000000E+00   0.00000000000000E+00   0.00000000000000E+00  -2.09768443825535E-18
     -9.19531053858713E-21  -2.10687974879393E-18   3.37887285059677E-16   3.58133333333333E-03   3.58133333333333E-03
      0.00000000000000E+00   0.00000000000000E+00   1.85617563450636E-19   1.91366775577545E-22   1.85808930226213E-19
      3.83191205427896E-16  -5.00000000000000E-01  -5.00000000000000E-01   0.00000000000000E+00   0.00000000000000E+00
      0.00000000000000E+00   0.00000000000000E+00   0.00000000000000E+00  -2.43816010800656E-16
      5.25216000000000E-03
      0.00000000000000E+00   0.00000000000000E+00   0.00000000000000E+00   0.00000000000000E+00  -1.01172784384896E-18
     -1.39261144448750E-20  -1.02565395829384E-18   3.37653243074613E-16   5.25216000000000E-03   5.25216000000000E-03
      0.00000000000000E+00   0.00000000000000E+00   1.82793701042759E-18   2.82989270551108E-22   1.82821999969814E-18
      3.83271654246246E-16  -5.00000000000000E-01  -5.00000000000000E-01   0.00000000000000E+00   0.00000000000000E+00
      0.00000000000000E+00   0.00000000000000E+00   0.00000000000000E+00  -2.45604378171705E-16
      7.23487431111111E-03
      0.00000000000000E+00   0.00000000000000E+00   0.00000000000000E+00   0.00000000000000E+00  -2.95923940048899E-18
     -1.99377710662335E-20  -2.97917717155522E-18   3.37374965914563E-16   7.23487431111111E-03   7.23487431111111E-03
      0.00000000000000E+00   0.00000000000000E+00   2.68964082069207E-18   3.93775153215594E-22   2.69003459584529E-18
      3.83367102493644E-16  -5.00000000000000E-01  -5.00000000000000E-01   0.00000000000000E+00   0.00000000000000E+00
      0.00000000000000E+00   0.00000000000000E+00   0.00000000000000E+00  -2.47726548501403E-16
      9.58769529362963E-03
      0.00000000000000E+00   0.00000000000000E+00   0.00000000000000E+00   0.00000000000000E+00  -2.46528500990596E-18
     -2.76748998741634E-20  -2.49295990978013E-18   3.37043989969274E-16   9.58769529362963E-03   9.58769529362963E-03
      0.00000000000000E+00   0.00000000000000E+00   2.35581274458724E-18   5.28302153052877E-22   2.35634104674029E-18
      3.83480351991883E-16  -5.00000000000000E-01  -5.00000000000000E-01   0.00000000000000E+00   0.00000000000000E+00
      0.00000000000000E+00   0.00000000000000E+00   0.00000000000000E+00  -2.50244729004761E-16
      1.23797095262183E-02
      0.00000000000000E+00   0.00000000000000E+00   0.00000000000000E+00   0.00000000000000E+00  -3.06769441547272E-18
     -3.77839529922689E-20  -3.10547836846499E-18   3.36650200251589E-16   1.23797095262183E-02   1.23797095262183E-02
      0.00000000000000E+00   0.00000000000000E+00   4.59971874336114E-18   6.92537025541855E-22   4.60041128038668E-18
      3.83614735479753E-16  -5.00000000000000E-01  -5.00000000000000E-01   0.00000000000000E+00   0.00000000000000E+00
      0.00000000000000E+00   0.00000000000000E+00   0.00000000000000E+00  -2.53232625805792E-16
      1.56928997488901E-02
      0.00000000000000E+00   0.00000000000000E+00   0.00000000000000E+00   0.00000000000000E+00  -4.15915796595807E-18
     -5.12297550824877E-20  -4.21038772104055E-18   3.36181502978706E-16   1.56928997488901E-02   1.56928997488901E-02
      0.00000000000000E+00   0.00000000000000E+00   6.24701199105899E-18   8.94418353517017E-22   6.24790640941250E-18
      3.83774224828417E-16  -5.00000000000000E-01  -5.00000000000000E-01   0.00000000000000E+00   0.00000000000000E+00
      0.00000000000000E+00   0.00000000000000E+00   0.00000000000000E+00  -2.56777486042922E-16
      1.96245521464607E-02
      0.00000000000000E+00   0.00000000000000E+00   0.00000000000000E+00   0.00000000000000E+00  -7.16329455511820E-18
     -6.94947499491962E-20  -7.23278930506739E-18   3.35623437722041E-16   1.96245521464607E-02   1.96245521464607E-02
      0.00000000000000E+00   0.00000000000000E+00   6.85801741840628E-18   1.14477460291051E-21   6.85916219300919E-18
      3.83963568432265E-16  -5.00000000000000E-01  -5.00000000000000E-01   0.00000000000000E+00   0.00000000000000E+00
      0.00000000000000E+00   0.00000000000000E+00   0.00000000000000E+00  -2.60982427153057E-16
      2.42901129915778E-02
      0.00000000000000E+00   0.00000000000000E+00   0.00000000000000E+00   0.00000000000000E+00  -8.45331062810371E-18
     -9.49314012125029E-20  -8.54824202931622E-18   3.34958725832432E-16   2.42901129915778E-02   2.42901129915778E-02
      0.00000000000000E+00   0.00000000000000E+00   9.02341313695521E-18   1.45881947067005E-21   9.02487195642588E-18
      3.84188471843940E-16  -5.00000000000000E-01  -5.00000000000000E-01   0.00000000000000E+00   0.00000000000000E+00
      0.00000000000000E+00   0.00000000000000E+00   0.00000000000000E+00  -2.65969020583428E-16
      2.98265785277835E-02
      0.00000000000000E+00   0.00000000000000E+00   0.00000000000000E+00   0.00000000000000E+00  -1.15114699552233E-17
     -1.31408972154897E-19  -1.16428789273782E-17   3.34166762255744E-16   2.98265785277835E-02   2.98265785277835E-02
      0.00000000000000E+00   0.00000000000000E+00   1.14485464190877E-17   1.85867066263950E-21   1.14504050897504E-17
      3.84455847015228E-16  -5.00000000000000E-01  -5.00000000000000E-01   0.00000000000000E+00   0.00000000000000E+00
      0.00000000000000E+00   0.00000000000000E+00   0.00000000000000E+00  -2.71880006509572E-16
      3.63965176307475E-02
      0.00000000000000E+00   0.00000000000000E+00   0.00000000000000E+00   0.00000000000000E+00  -1.46458306004621E-17
     -1.85549271874330E-19  -1.48313798723364E-17   3.33223082246704E-16   3.63965176307475E-02   3.63965176307475E-02
      0.00000000000000E+00   0.00000000000000E+00   1.38831328256139E-17   2.37771396971697E-21   1.38855105395836E-17
      3.84774177416819E-16  -5.00000000000000E-01  -5.00000000000000E-01   0.00000000000000E+00   0.00000000000000E+00
      0.00000000000000E+00   0.00000000000000E+00   0.00000000000000E+00  -2.78881826899811E-16
      4.41928453662648E-02
      0.00000000000000E+00   0.00000000000000E+00   0.00000000000000E+00   0.00000000000000E+00  -1.82974095897133E-17
     -2.69191643537959E-19  -1.85666012332513E-17   3.32098890575659E-16   4.41928453662648E-02   4.41928453662648E-02
      0.00000000000000E+00   0.00000000000000E+00   1.81873781816606E-17   3.06834977302301E-21   1.81904465314336E-17
      3.85154091126429E-16  -5.00000000000000E-01  -5.00000000000000E-01   0.00000000000000E+00   0.00000000000000E+00
      0.00000000000000E+00   0.00000000000000E+00   0.00000000000000E+00  -2.87166260263877E-16
      5.34444876124120E-02
      0.00000000000000E+00   0.00000000000000E+00   0.00000000000000E+00   0.00000000000000E+00  -2.19372217453281E-17
     -4.04537215202235E-19  -2.23417589605304E-17   3.30760862827730E-16   5.34444876124120E-02   5.34444876124120E-02
      0.00000000000000E+00   0.00000000000000E+00   2.26160742892162E-17   4.01592781314991E-21   2.26200902170294E-17
      3.85609324577072E-16  -5.00000000000000E-01  -5.00000000000000E-01   0.00000000000000E+00   0.00000000000000E+00
      0.00000000000000E+00   0.00000000000000E+00   0.00000000000000E+00  -2.96949607494582E-16
      6.44231030778400E-02
      0.00000000000000E+00   0.00000000000000E+00   0.00000000000000E+00   0.00000000000000E+00  -2.88455366760525E-17
     -6.35379694877418E-19  -2.94809163709299E-17   3.29171701228071E-16   6.44231030778400E-02   6.44231030778400E-02
      0.00000000000000E+00   0.00000000000000E+00   2.95168148650686E-17   5.36387830475279E-21   2.95221787433734E-17
      3.86158452478261E-16  -5.00000000000000E-01  -5.00000000000000E-01   0.00000000000000E+00   0.00000000000000E+00
      0.00000000000000E+00   0.00000000000000E+00   0.00000000000000E+00  -3.08466083771513E-16
      7.73046785572755E-02
      0.00000000000000E+00   0.00000000000000E+00   0.00000000000000E+00   0.00000000000000E+00  -3.99661638579084E-17
     -1.04683125544830E-18  -4.10129951133567E-17   3.27313566632937E-16   7.73046785572755E-02   7.73046785572755E-02
      0.00000000000000E+00   0.00000000000000E+00   4.25921076151396E-17   7.33297172666437E-21   4.25994405868663E-17
      3.86820511727070E-16  -5.00000000000000E-01  -5.00000000000000E-01   0.00000000000000E+00   0.00000000000000E+00
      0.00000000000000E+00   0.00000000000000E+00   0.00000000000000E+00  -3.21798092411337E-16
      9.24190604531466E-02
      0.00000000000000E+00   0.00000000000000E+00   0.00000000000000E+00   0.00000000000000E+00  -5.78492174246095E-17
     -1.82149068504800E-18  -5.96707081096576E-17   3.25159016840266E-16   9.24190604531466E-02   9.24190604531466E-02
      0.00000000000000E+00   0.00000000000000E+00   5.95037144976548E-17   1.03095221590016E-20   5.95140240198138E-17
      3.87632613841647E-16  -5.00000000000000E-01  -5.00000000000000E-01   0.00000000000000E+00   0.00000000000000E+00
      0.00000000000000E+00   0.00000000000000E+00   0.00000000000000E+00  -3.37088841864724E-16
      1.10153268544302E-01
      0.00000000000000E+00   0.00000000000000E+00   0.00000000000000E+00   0.00000000000000E+00  -8.28318051917473E-17
     -3.35265686488397E-18  -8.61844620566313E-17   3.22700206156731E-16   1.10153268544302E-01   1.10153268544302E-01
      0.00000000000000E+00   0.00000000000000E+00   8.66447951222415E-17   1.49111187386207E-20   8.66597062409801E-17
      3.88655975184358E-16  -5.00000000000000E-01  -5.00000000000000E-01   0.00000000000000E+00   0.00000000000000E+00
      0.00000000000000E+00   0.00000000000000E+00   0.00000000000000E+00  -3.54337233116439E-16
      1.30961406037924E-01
      0.00000000000000E+00   0.00000000000000E+00   0.00000000000000E+00   0.00000000000000E+00  -1.26801359428534E-16
     -6.46062527929385E-18  -1.33261984707828E-16   3.19978095537921E-16   1.30961406037924E-01   1.30961406037924E-01
      0.00000000000000E+00   0.00000000000000E+00   1.33823404484362E-16   2.19805792414886E-20   1.33845385063604E-16
      3.89997115926034E-16  -5.00000000000000E-01  -5.00000000000000E-01   0.00000000000000E+00   0.00000000000000E+00
      0.00000000000000E+00   0.00000000000000E+00   0.00000000000000E+00  -3.73211580094042E-16
      1.55376287363774E-01
      0.00000000000000E+00   0.00000000000000E+00   0.00000000000000E+00   0.00000000000000E+00  -1.97265357457143E-16
     -1.26119223927939E-17  -2.09877279849937E-16   3.17131064585501E-16   1.55376287363774E-01   1.55376287363774E-01
      0.00000000000000E+00   0.00000000000000E+00   2.10796619436149E-16   3.21378371737370E-20   2.10828757273323E-16
      3.91840638242182E-16  -5.00000000000000E-01  -5.00000000000000E-01   0.00000000000000E+00   0.00000000000000E+00
      0.00000000000000E+00   0.00000000000000E+00   0.00000000000000E+00  -3.92754481205866E-16
      1.83697549701760E-01
      0.00000000000000E+00   0.00000000000000E+00   0.00000000000000E+00   0.00000000000000E+00  -3.00444572899366E-16
     -2.32885398526343E-17  -3.23733112752000E-16   3.14459268559085E-16   1.83697549701760E-01   1.83697549701760E-01
      0.00000000000000E+00   0.00000000000000E+00   3.24339751474731E-16   4.42591510372128E-20   3.24384010625768E-16
      3.94437902268629E-16  -5.00000000000000E-01  -5.00000000000000E-01   0.00000000000000E+00   0.00000000000000E+00
      0.00000000000000E+00   0.00000000000000E+00   0.00000000000000E+00  -4.11003308816318E-16
      2.16550214013824E-01
      0.00000000000000E+00   0.00000000000000E+00   0.00000000000000E+00   0.00000000000000E+00  -4.29882529261771E-16
     -3.79210554711428E-17  -4.67803584732914E-16   3.12284452457565E-16   2.16550214013824E-01   2.16550214013824E-01
      0.00000000000000E+00   0.00000000000000E+00   4.67637026354065E-16   5.48986833521831E-20   4.67691925037417E-16
      3.98088599070264E-16  -5.00000000000000E-01  -5.00000000000000E-01   0.00000000000000E+00   0.00000000000000E+00
      0.00000000000000E+00   0.00000000000000E+00   0.00000000000000E+00  -4.25961369259457E-16
      2.54659304615818E-01
      0.00000000000000E+00   0.00000000000000E+00   0.00000000000000E+00   0.00000000000000E+00  -5.56400242669336E-16
     -5.22941533199377E-17  -6.08694395989274E-16   3.10804169155519E-16   2.54659304615818E-01   2.54659304615818E-01
      0.00000000000000E+00   0.00000000000000E+00   6.08297656168291E-16   6.10929145203574E-20   6.08358749082811E-16
      4.03002843287212E-16  -5.00000000000000E-01  -5.00000000000000E-01   0.00000000000000E+00   0.00000000000000E+00
      0.00000000000000E+00   0.00000000000000E+00   0.00000000000000E+00  -4.36484198448264E-16
      2.98865849714132E-01
      0.00000000000000E+00   0.00000000000000E+00   0.00000000000000E+00   0.00000000000000E+00  -6.54644880527210E-16
     -6.20332942362768E-17  -7.16678174763487E-16   3.09961637732278E-16   2.98865849714132E-01   2.98865849714132E-01
      0.00000000000000E+00   0.00000000000000E+00   7.16341970184038E-16   6.34273723652896E-20   7.16405397556403E-16
      4.09222433046674E-16  -5.00000000000000E-01  -5.00000000000000E-01   0.00000000000000E+00   0.00000000000000E+00
      0.00000000000000E+00   0.00000000000000E+00   0.00000000000000E+00  -4.43024165698291E-16
      3.50145442028175E-01
      0.00000000000000E+00   0.00000000000000E+00   0.00000000000000E+00   0.00000000000000E+00  -7.32451137066256E-16
     -6.68879231342272E-17  -7.99339060200483E-16   3.09511701861902E-16   3.50145442028175E-01   3.50145442028175E-01
      0.00000000000000E+00   0.00000000000000E+00   7.98047831003279E-16   6.40914241176360E-20   7.98111922427397E-16
      4.16677203977439E-16  -5.00000000000000E-01  -5.00000000000000E-01   0.00000000000000E+00   0.00000000000000E+00
      0.00000000000000E+00   0.00000000000000E+00   0.00000000000000E+00  -4.47162535734228E-16
      4.09629769112465E-01
      0.00000000000000E+00   0.00000000000000E+00   0.00000000000000E+00   0.00000000000000E+00  -8.10796946318662E-16
     -6.90626065503182E-17  -8.79859552868980E-16   3.09213602191490E-16   4.09629769112465E-01   4.09629769112465E-01
      0.00000000000000E+00   0.00000000000000E+00   8.78883624867932E-16   6.43477477216830E-20   8.78947972615654E-16
      4.25309971008470E-16  -5.00000000000000E-01  -5.00000000000000E-01   0.00000000000000E+00   0.00000000000000E+00
      0.00000000000000E+00   0.00000000000000E+00   0.00000000000000E+00  -4.50395132711793E-16
      4.78631588530242E-01
      0.00000000000000E+00   0.00000000000000E+00   0.00000000000000E+00   0.00000000000000E+00  -9.08650679312926E-16
     -7.02903928672318E-17  -9.78941072180158E-16   3.08923059276324E-16   4.78631588530242E-01   4.78631588530242E-01
      0.00000000000000E+00   0.00000000000000E+00   9.79150576263530E-16   6.45574887629429E-20   9.79215133752293E-16
      4.35110549164937E-16  -5.00000000000000E-01  -5.00000000000000E-01   0.00000000000000E+00   0.00000000000000E+00
      0.00000000000000E+00   0.00000000000000E+00   0.00000000000000E+00  -4.53555264360452E-16
      5.58673699054863E-01
      0.00000000000000E+00   0.00000000000000E+00   0.00000000000000E+00   0.00000000000000E+00  -1.05467242515342E-15
     -7.11472519485528E-17  -1.12581967710197E-15   3.08578191833312E-16   5.58673699054863E-01   5.58673699054863E-01
      0.00000000000000E+00   0.00000000000000E+00   1.12343631643826E-15   6.48192470154217E-20   1.12350113568527E-15
      4.46046310416433E-16  -5.00000000000000E-01  -5.00000000000000E-01   0.00000000000000E+00   0.00000000000000E+00
      0.00000000000000E+00   0.00000000000000E+00   0.00000000000000E+00  -4.56876064275526E-16
      6.51522547263423E-01
      0.00000000000000E+00   0.00000000000000E+00   0.00000000000000E+00   0.00000000000000E+00  -1.27854968849151E-15
     -7.16151435605962E-17  -1.35016483205211E-15   3.08148829976419E-16   6.51522547263423E-01   6.51522547263423E-01
      0.00000000000000E+00   0.00000000000000E+00   1.34811419588348E-15   6.51382567418008E-20   1.34817933414023E-15
      4.57934767297270E-16  -5.00000000000000E-01  -5.00000000000000E-01   0.00000000000000E+00   0.00000000000000E+00
      0.00000000000000E+00   0.00000000000000E+00   0.00000000000000E+00  -4.60266378209887E-16
      7.57989226542572E-01
      0.00000000000000E+00   0.00000000000000E+00   0.00000000000000E+00   0.00000000000000E+00  -1.65101595592422E-15
     -7.21098814900484E-17  -1.72312583741427E-15   3.07577633135093E-16   7.57989226542572E-01   7.57989226542572E-01
      0.00000000000000E+00   0.00000000000000E+00   1.72222485993915E-15   6.54995244431372E-20   1.72229035946360E-15
      4.70401823624885E-16  -5.00000000000000E-01  -5.00000000000000E-01   0.00000000000000E+00   0.00000000000000E+00
      0.00000000000000E+00   0.00000000000000E+00   0.00000000000000E+00  -4.63744394791113E-16
      8.75812351611497E-01
      0.00000000000000E+00   0.00000000000000E+00   0.00000000000000E+00   0.00000000000000E+00  -2.29752657590719E-15
     -7.27657513880663E-17  -2.37029232729526E-15   3.06832427194862E-16   8.75812351611497E-01   8.75812351611497E-01
      0.00000000000000E+00   0.00000000000000E+00   2.37083579155625E-15   6.58896435670307E-20   2.37090168119982E-15
      4.83335847709396E-16  -5.00000000000000E-01  -5.00000000000000E-01   0.00000000000000E+00   0.00000000000000E+00
      0.00000000000000E+00   0.00000000000000E+00   0.00000000000000E+00  -4.67367425035941E-16
      1.00000000000000E+00
      0.00000000000000E+00   0.00000000000000E+00   0.00000000000000E+00   0.00000000000000E+00  -3.43539589058686E-15
     -7.32870432667681E-17  -3.50868293385363E-15   3.05931956857156E-16   1.00000000000000E+00   1.00000000000000E+00
      0.00000000000000E+00   0.00000000000000E+00   3.50801646443438E-15   6.62851477009997E-20   3.50808274958208E-15
      4.96649662815806E-16  -5.00000000000000E-01  -5.00000000000000E-01   0.00000000000000E+00   0.00000000000000E+00
      0.00000000000000E+00   0.00000000000000E+00   0.00000000000000E+00  -4.71070046223641E-16
      0.00000000000000E+00
      0.00000000000000E+00   0.00000000000000E+00   0.00000000000000E+00   0.00000000000000E+00  -3.43433922129427E-15
     -7.32870996460221E-17  -3.50762632094029E-15   3.05931953849128E-16   1.00000000000000E+00   1.00000000000000E+00
      0.00000000000000E+00   0.00000000000000E+00   3.50923916240083E-15   6.62851476555834E-20   3.50930544754849E-15
      4.96649661400475E-16  -5.00000000000000E-01  -5.00000000000000E-01   0.00000000000000E+00   0.00000000000000E+00
      0.00000000000000E+00   0.00000000000000E+00   0.00000000000000E+00  -4.71070067749474E-16
      1.00000000000000E-03
      0.00000000000000E+00   0.00000000000000E+00   0.00000000000000E+00   0.00000000000000E+00  -3.44338282111995E-15
     -7.32707406836317E-17  -3.51665356180358E-15   3.05908029901966E-16   1.00000000000000E+00   1.00000000000000E+00
      0.00000000000000E+00   0.00000000000000E+00   3.51549224585698E-15   6.62841670211861E-20   3.51555853002400E-15
      4.96593909807515E-16  -4.98000000000000E-01  -4.98000000000000E-01   0.00000000000000E+00   0.00000000000000E+00
      0.00000000000000E+00   0.00000000000000E+00   0.00000000000000E+00  -4.68819828036020E-16
      2.17333333333333E-03
      0.00000000000000E+00   0.00000000000000E+00   0.00000000000000E+00   0.00000000000000E+00  -3.45326252115314E-15
     -7.32515182438146E-17  -3.52651403939695E-15   3.05879866698780E-16   1.00000000000000E+00   1.00000000000000E+00
      0.00000000000000E+00   0.00000000000000E+00   3.52460820993855E-15   6.62830150152055E-20   3.52467449295356E-15
      4.96528443487842E-16  -4.95653333333333E-01  -4.95653333333333E-01   0.00000000000000E+00   0.00000000000000E+00
      0.00000000000000E+00   0.00000000000000E+00   0.00000000000000E+00  -4.66180078415898E-16
      3.58133333333333E-03
      0.00000000000000E+00   0.00000000000000E+00   0.00000000000000E+00   0.00000000000000E+00  -3.46552171393094E-15
     -7.32283957310514E-17  -3.53875010966199E-15   3.05845938974459E-16   1.00000000000000E+00   1.00000000000000E+00
      0.00000000000000E+00   0.00000000000000E+00   3.53532546634484E-15   6.62816306142649E-20   3.53539174797546E-15
      4.96449810698886E-16  -4.92837333333333E-01  -4.92837333333333E-01   0.00000000000000E+00   0.00000000000000E+00
      0.00000000000000E+00   0.00000000000000E+00   0.00000000000000E+00  -4.63013137638955E-16
      5.27093333333333E-03
      0.00000000000000E+00   0.00000000000000E+00   0.00000000000000E+00   0.00000000000000E+00  -3.48167195796024E-15
     -7.32005263355196E-17  -3.55487248429576E-15   3.05805036363229E-16   1.00000000000000E+00   1.00000000000000E+00
      0.00000000000000E+00   0.00000000000000E+00   3.54931274919879E-15   6.62799664643188E-20   3.54937902916526E-15
      4.96355345697201E-16  -4.89458133333333E-01  -4.89458133333333E-01   0.00000000000000E+00   0.00000000000000E+00
      0.00000000000000E+00   0.00000000000000E+00   0.00000000000000E+00  -4.59213897448474E-16
      7.29845333333333E-03
      0.00000000000000E+00   0.00000000000000E+00   0.00000000000000E+00   0.00000000000000E+00  -3.49504854870680E-15
     -7.31670449269314E-17  -3.56821559363373E-15   3.05755670245430E-16   1.00000000000000E+00   1.00000000000000E+00
      0.00000000000000E+00   0.00000000000000E+00   3.56990590541025E-15   6.62779651857191E-20   3.56997218337544E-15
      4.96241829783710E-16  -4.85403093333333E-01  -4.85403093333333E-01   0.00000000000000E+00   0.00000000000000E+00
      0.00000000000000E+00   0.00000000000000E+00   0.00000000000000E+00  -4.54656451414723E-16
      9.70444373333333E-03
      0.00000000000000E+00   0.00000000000000E+00   0.00000000000000E+00   0.00000000000000E+00  -3.51597915365849E-15
     -7.31270080249490E-17  -3.58910616168344E-15   3.05696696878335E-16   1.00000000000000E+00   1.00000000000000E+00
      0.00000000000000E+00   0.00000000000000E+00   3.58947273094483E-15   6.62755843561281E-20   3.58953900652919E-15
      4.96106903056547E-16  -4.80591112533333E-01  -4.80591112533333E-01   0.00000000000000E+00   0.00000000000000E+00
      0.00000000000000E+00   0.00000000000000E+00   0.00000000000000E+00  -4.49250547698112E-16
      1.25595523413333E-02
      0.00000000000000E+00   0.00000000000000E+00   0.00000000000000E+00   0.00000000000000E+00  -3.54106451876913E-15
     -7.30792257292647E-17  -3.61414374449839E-15   3.05626145558360E-16   1.00000000000000E+00   1.00000000000000E+00
      0.00000000000000E+00   0.00000000000000E+00   3.61275360795490E-15   6.62727503893478E-20   3.61281988070529E-15
      4.95946467664267E-16  -4.74880895317333E-01  -4.74880895317333E-01   0.00000000000000E+00   0.00000000000000E+00
      0.00000000000000E+00   0.00000000000000E+00   0.00000000000000E+00  -4.42838857311335E-16
      1.59476145561600E-02
      0.00000000000000E+00   0.00000000000000E+00   0.00000000000000E+00   0.00000000000000E+00  -3.57037793281501E-15
     -7.30221528199768E-17  -3.64340008563498E-15   3.05541606837261E-16   1.00000000000000E+00   1.00000000000000E+00
      0.00000000000000E+00   0.00000000000000E+00   3.64469905323238E-15   6.62693748413025E-20   3.64476532260722E-15
      4.95755618147463E-16  -4.68104770887680E-01  -4.68104770887680E-01   0.00000000000000E+00   0.00000000000000E+00
      0.00000000000000E+00   0.00000000000000E+00   0.00000000000000E+00  -4.35235102323256E-16
      1.99681150510876E-02
      0.00000000000000E+00   0.00000000000000E+00   0.00000000000000E+00   0.00000000000000E+00  -3.60714562256384E-15
     -7.29539375324552E-17  -3.68009956009629E-15   3.05440107970042E-16   1.00000000000000E+00   1.00000000000000E+00
      0.00000000000000E+00   0.00000000000000E+00   3.68005531046658E-15   6.62653509486615E-20   3.68012157581753E-15
      4.95528465138432E-16  -4.60063769897825E-01  -4.60063769897825E-01   0.00000000000000E+00   0.00000000000000E+00
      0.00000000000000E+00   0.00000000000000E+00   0.00000000000000E+00  -4.26218923079268E-16
      2.47391089717351E-02
      0.00000000000000E+00   0.00000000000000E+00   0.00000000000000E+00   0.00000000000000E+00  -3.65127718925225E-15
     -7.28723563384869E-17  -3.72414954559074E-15   3.05317953127480E-16   1.00000000000000E+00   1.00000000000000E+00
      0.00000000000000E+00   0.00000000000000E+00   3.72240080496774E-15   6.62605493027389E-20   3.72246706551705E-15
      4.95257916872604E-16  -4.50521782056530E-01  -4.50521782056530E-01   0.00000000000000E+00   0.00000000000000E+00
      0.00000000000000E+00   0.00000000000000E+00   0.00000000000000E+00  -4.15529860792548E-16
      3.04006884242368E-02
      0.00000000000000E+00   0.00000000000000E+00   0.00000000000000E+00   0.00000000000000E+00  -3.70503846191945E-15
     -7.27747587097063E-17  -3.77781322062916E-15   3.05170503493563E-16   1.00000000000000E+00   1.00000000000000E+00
      0.00000000000000E+00   0.00000000000000E+00   3.77622936395845E-15   6.62548121863873E-20   3.77629561877063E-15
      4.94935399244021E-16  -4.39198623151526E-01  -4.39198623151526E-01   0.00000000000000E+00   0.00000000000000E+00
      0.00000000000000E+00   0.00000000000000E+00   0.00000000000000E+00  -4.02860418590536E-16
      3.71190960412054E-02
      0.00000000000000E+00   0.00000000000000E+00   0.00000000000000E+00   0.00000000000000E+00  -3.77194390512053E-15
     -7.26580372224140E-17  -3.84460194234295E-15   3.04991867759839E-16   1.00000000000000E+00   1.00000000000000E+00
      0.00000000000000E+00   0.00000000000000E+00   3.84380919305307E-15   6.62479459799931E-20   3.84387544099905E-15
      4.94550489123794E-16  -4.25761807917589E-01  -4.25761807917589E-01   0.00000000000000E+00   0.00000000000000E+00
      0.00000000000000E+00   0.00000000000000E+00   0.00000000000000E+00  -3.87848158371968E-16
      4.50916064133415E-02
      0.00000000000000E+00   0.00000000000000E+00   0.00000000000000E+00   0.00000000000000E+00  -3.85508502343449E-15
     -7.25186598747987E-17  -3.92760368330929E-15   3.04774454571431E-16   1.00000000000000E+00   1.00000000000000E+00
      0.00000000000000E+00   0.00000000000000E+00   3.92344569892507E-15   6.62397106567671E-20   3.92351193863573E-15
      4.94090419695733E-16  -4.09816787173317E-01  -4.09816787173317E-01   0.00000000000000E+00   0.00000000000000E+00
      0.00000000000000E+00   0.00000000000000E+00   0.00000000000000E+00  -3.70066884930361E-16
      5.45523187216097E-02
      0.00000000000000E+00   0.00000000000000E+00   0.00000000000000E+00   0.00000000000000E+00  -3.95449645145446E-15
     -7.23530159116653E-17  -4.02684946736613E-15   3.04508295449024E-16   1.00000000000000E+00   1.00000000000000E+00