DF-ISE text

Info {
  version   = 1.0
  type      = xyplot
  datasets  = [
    "time"
    "S OuterVoltage" "S InnerVoltage" "S QuasiFermiPotential" "S DisplacementCurrent" "S eCurrent"
    "S hCurrent" "S TotalCurrent" "S Charge" "D OuterVoltage" "D InnerVoltage"
    "D QuasiFermiPotential" "D DisplacementCurrent" "D eCurrent" "D hCurrent" "D TotalCurrent"
    "D Charge" "G OuterVoltage" "G InnerVoltage" "G QuasiFermiPotential" "G DisplacementCurrent"
    "G eCurrent" "G hCurrent" "G TotalCurrent" "G Charge" ]
  functions = [
    Time
    OuterVoltage InnerVoltage QuasiFermiPotential DisplacementCurrent eCurrent
    hCurrent TotalCurrent Charge OuterVoltage InnerVoltage
    QuasiFermiPotential DisplacementCurrent eCurrent hCurrent TotalCurrent
    Charge OuterVoltage InnerVoltage QuasiFermiPotential DisplacementCurrent
    eCurrent hCurrent TotalCurrent Charge ]
}

Data {
      0.00000000000000E+00
      0.00000000000000E+00   0.00000000000000E+00   0.00000000000000E+00   0.00000000000000E+00  -5.72129291455817E-19
      1.74073156075782E-34  -5.72129291455816E-19   3.49750223426280E-16   0.00000000000000E+00   0.00000000000000E+00
      0.00000000000000E+00   0.00000000000000E+00  -5.67116762754388E-19   2.51686568563343E-34  -5.67116762754388E-19
      5.21890169545807E-16  -5.00000000000000E-01  -5.00000000000000E-01   0.00000000000000E+00   0.00000000000000E+00
      0.00000000000000E+00   0.00000000000000E+00   0.00000000000000E+00  -3.12534917398741E-16
      0.00000000000000E+00
      0.00000000000000E+00   0.00000000000000E+00   0.00000000000000E+00   0.00000000000000E+00  -1.71829795980984E-18
     -1.73330513242933E-32  -1.71829795980985E-18   3.49750223287004E-16   0.00000000000000E+00   0.00000000000000E+00
      0.00000000000000E+00   0.00000000000000E+00   1.69246469946973E-18  -1.73076959500567E-32   1.69246469946971E-18
      5.21890169406115E-16  -5.00000000000000E-01  -5.00000000000000E-01   0.00000000000000E+00   0.00000000000000E+00
      0.00000000000000E+00   0.00000000000000E+00   0.00000000000000E+00  -3.12534917421060E-16
      1.00000000000000E-03
      0.00000000000000E+00   0.00000000000000E+00   0.00000000000000E+00   0.00000000000000E+00   1.59942067999488E-18
     -1.06871703628411E-21   1.59835196295860E-18   3.49630000792852E-16   1.00000000000000E-03   1.00000000000000E-03
      0.00000000000000E+00   0.00000000000000E+00   2.87836002333400E-18   2.50773401101875E-22   2.87861079673510E-18
      5.22047768802958E-16  -5.00000000000000E-01  -5.00000000000000E-01   0.00000000000000E+00   0.00000000000000E+00
      0.00000000000000E+00   0.00000000000000E+00   0.00000000000000E+00  -3.13439290450702E-16
      2.17333333333333E-03
      0.00000000000000E+00   0.00000000000000E+00   0.00000000000000E+00   0.00000000000000E+00  -4.54950446007073E-17
     -2.36776308703078E-21  -4.54974123637944E-17   3.49488580697945E-16   2.17333333333333E-03   2.17333333333333E-03
      0.00000000000000E+00   0.00000000000000E+00  -2.17773355972254E-17   5.40824705884381E-22  -2.17767947725195E-17
      5.22232392957938E-16  -5.00000000000000E-01  -5.00000000000000E-01   0.00000000000000E+00   0.00000000000000E+00
      0.00000000000000E+00   0.00000000000000E+00   0.00000000000000E+00  -3.14502141994274E-16
      3.58133333333333E-03
      0.00000000000000E+00   0.00000000000000E+00   0.00000000000000E+00   0.00000000000000E+00  -3.85643574336114E-18
     -3.99342398870856E-21  -3.86042916734985E-18   3.49318374633741E-16   3.58133333333333E-03   3.58133333333333E-03
      0.00000000000000E+00   0.00000000000000E+00   5.76144625700618E-18   8.83103728325272E-22   5.76232936073451E-18
      5.22453534886921E-16  -5.00000000000000E-01  -5.00000000000000E-01   0.00000000000000E+00   0.00000000000000E+00
      0.00000000000000E+00   0.00000000000000E+00   0.00000000000000E+00  -3.15779946833234E-16
      5.25216000000000E-03
      0.00000000000000E+00   0.00000000000000E+00   0.00000000000000E+00   0.00000000000000E+00  -4.03295381762957E-18
     -6.02155479211824E-21  -4.03897537242169E-18   3.49115703117188E-16   5.25216000000000E-03   5.25216000000000E-03
      0.00000000000000E+00   0.00000000000000E+00   8.06803218025290E-18   1.28140070302624E-21   8.06931358095593E-18
      5.22715397299629E-16  -5.00000000000000E-01  -5.00000000000000E-01   0.00000000000000E+00   0.00000000000000E+00
      0.00000000000000E+00   0.00000000000000E+00   0.00000000000000E+00  -3.17299529717841E-16
      7.23487431111111E-03
      0.00000000000000E+00   0.00000000000000E+00   0.00000000000000E+00   0.00000000000000E+00  -1.43697779386122E-18
     -8.57555112745324E-21  -1.44555334498868E-18   3.48874250741804E-16   7.23487431111111E-03   7.23487431111111E-03
      0.00000000000000E+00   0.00000000000000E+00   3.00502573181118E-18   1.74345618221403E-21   3.00676918799340E-18
      5.23025380922886E-16  -5.00000000000000E-01  -5.00000000000000E-01   0.00000000000000E+00   0.00000000000000E+00
      0.00000000000000E+00   0.00000000000000E+00   0.00000000000000E+00  -3.19107154980874E-16
      9.58769529362963E-03
      0.00000000000000E+00   0.00000000000000E+00   0.00000000000000E+00   0.00000000000000E+00  -1.69565047027763E-18
     -1.18275915374899E-20  -1.70747806181512E-18   3.48586438671378E-16   9.58769529362963E-03   9.58769529362963E-03
      0.00000000000000E+00   0.00000000000000E+00   8.75724216503910E-18   2.27765072730178E-21   8.75951981576640E-18
      5.23392205596858E-16  -5.00000000000000E-01  -5.00000000000000E-01   0.00000000000000E+00   0.00000000000000E+00
      0.00000000000000E+00   0.00000000000000E+00   0.00000000000000E+00  -3.21258049758148E-16
      1.23797095262183E-02
      0.00000000000000E+00   0.00000000000000E+00   0.00000000000000E+00   0.00000000000000E+00  -6.92839824658040E-18
     -1.60231806504526E-20  -6.94442142723085E-18   3.48243167188644E-16   1.23797095262183E-02   1.23797095262183E-02
      0.00000000000000E+00   0.00000000000000E+00   2.94442012679308E-18   2.89296338748338E-21   2.94731309018056E-18
      5.23826143734175E-16  -5.00000000000000E-01  -5.00000000000000E-01   0.00000000000000E+00   0.00000000000000E+00
      0.00000000000000E+00   0.00000000000000E+00   0.00000000000000E+00  -3.23818123213146E-16
      1.56928997488901E-02
      0.00000000000000E+00   0.00000000000000E+00   0.00000000000000E+00   0.00000000000000E+00  -6.09443682892225E-18
     -2.15208833501574E-20  -6.11595771227241E-18   3.47833509461353E-16   1.56928997488901E-02   1.56928997488901E-02
      0.00000000000000E+00   0.00000000000000E+00   1.21649896788344E-17   3.59893671137397E-21   1.21685886155457E-17
      5.24339299977639E-16  -5.00000000000000E-01  -5.00000000000000E-01   0.00000000000000E+00   0.00000000000000E+00
      0.00000000000000E+00   0.00000000000000E+00   0.00000000000000E+00  -3.26865972563112E-16
      1.96245521464607E-02
      0.00000000000000E+00   0.00000000000000E+00   0.00000000000000E+00   0.00000000000000E+00  -1.53211902440177E-17
     -2.88584045462949E-20  -1.53500486485640E-17   3.47344358802130E-16   1.96245521464607E-02   1.96245521464607E-02
      0.00000000000000E+00   0.00000000000000E+00   1.25224775578474E-17   4.40573776324939E-21   1.25268832956106E-17
      5.24945958309127E-16  -5.00000000000000E-01  -5.00000000000000E-01   0.00000000000000E+00   0.00000000000000E+00
      0.00000000000000E+00   0.00000000000000E+00   0.00000000000000E+00  -3.30495138564525E-16
      2.42901129915778E-02
      0.00000000000000E+00   0.00000000000000E+00   0.00000000000000E+00   0.00000000000000E+00  -1.15586492903213E-17
     -3.88661929729390E-20  -1.15975154832942E-17   3.46760019594873E-16   2.42901129915778E-02   2.42901129915778E-02
      0.00000000000000E+00   0.00000000000000E+00   1.26718119915644E-17   5.32429002674514E-21   1.26771362815911E-17
      5.25663009130243E-16  -5.00000000000000E-01  -5.00000000000000E-01   0.00000000000000E+00   0.00000000000000E+00
      0.00000000000000E+00   0.00000000000000E+00   0.00000000000000E+00  -3.34816650655841E-16
      2.98265785277835E-02
      0.00000000000000E+00   0.00000000000000E+00   0.00000000000000E+00   0.00000000000000E+00  -2.48622560135813E-17
     -5.28686821983706E-20  -2.49151246957797E-17   3.46061783884426E-16   2.98265785277835E-02   2.98265785277835E-02
      0.00000000000000E+00   0.00000000000000E+00   1.73486424439020E-17   6.36681466889542E-21   1.73550092585709E-17
      5.26510525846014E-16  -5.00000000000000E-01  -5.00000000000000E-01   0.00000000000000E+00   0.00000000000000E+00
      0.00000000000000E+00   0.00000000000000E+00   0.00000000000000E+00  -3.39961542182483E-16
      3.63965176307475E-02
      0.00000000000000E+00   0.00000000000000E+00   0.00000000000000E+00   0.00000000000000E+00  -2.00191596360918E-17
     -7.30543794607005E-20  -2.00922140155525E-17   3.45227515333976E-16   3.63965176307475E-02   3.63965176307475E-02
      0.00000000000000E+00   0.00000000000000E+00   2.13110835791988E-17   7.54779339150651E-21   2.13186313725903E-17
      5.27512544085020E-16  -5.00000000000000E-01  -5.00000000000000E-01   0.00000000000000E+00   0.00000000000000E+00
      0.00000000000000E+00   0.00000000000000E+00   0.00000000000000E+00  -3.46083158397291E-16
      4.41052461782253E-02
      0.00000000000000E+00   0.00000000000000E+00   0.00000000000000E+00   0.00000000000000E+00  -2.28347264567000E-17
     -1.02799251892533E-19  -2.29375257085925E-17   3.44242607068431E-16   4.41052461782253E-02   4.41052461782253E-02
      0.00000000000000E+00   0.00000000000000E+00   2.60033875092254E-17   8.87123687568128E-21   2.60122587461011E-17
      5.28684916675593E-16  -5.00000000000000E-01  -5.00000000000000E-01   0.00000000000000E+00   0.00000000000000E+00
      0.00000000000000E+00   0.00000000000000E+00   0.00000000000000E+00  -3.53276500486104E-16
      5.31501543405992E-02
      0.00000000000000E+00   0.00000000000000E+00   0.00000000000000E+00   0.00000000000000E+00  -3.73076751619063E-17
     -1.48260367455624E-19  -3.74559355293619E-17   3.43081838248322E-16   5.31501543405992E-02   5.31501543405992E-02
      0.00000000000000E+00   0.00000000000000E+00   3.46684636527148E-17   1.03601826238536E-20   3.46788238353386E-17
      5.30058976607178E-16  -5.00000000000000E-01  -5.00000000000000E-01   0.00000000000000E+00   0.00000000000000E+00
      0.00000000000000E+00   0.00000000000000E+00   0.00000000000000E+00  -3.61711141956326E-16
      6.37628465844513E-02
      0.00000000000000E+00   0.00000000000000E+00   0.00000000000000E+00   0.00000000000000E+00  -4.32950366229012E-17
     -2.20601656562277E-19  -4.35156382794634E-17   3.41718389747730E-16   6.37628465844513E-02   6.37628465844513E-02
      0.00000000000000E+00   0.00000000000000E+00   3.78031226363258E-17   1.20496832756465E-20   3.78151723196015E-17
      5.31674512638242E-16  -5.00000000000000E-01  -5.00000000000000E-01   0.00000000000000E+00   0.00000000000000E+00
      0.00000000000000E+00   0.00000000000000E+00   0.00000000000000E+00  -3.71564836161960E-16
      7.62150721505711E-02
      0.00000000000000E+00   0.00000000000000E+00   0.00000000000000E+00   0.00000000000000E+00  -5.19993516952248E-17
     -3.40725275883165E-19  -5.23400769711079E-17   3.40126815400847E-16   7.62150721505711E-02   7.62150721505711E-02
      0.00000000000000E+00   0.00000000000000E+00   5.54807068541822E-17   1.39941995688151E-20   5.54947010537510E-17
      5.33584481519779E-16  -5.00000000000000E-01  -5.00000000000000E-01   0.00000000000000E+00   0.00000000000000E+00
      0.00000000000000E+00   0.00000000000000E+00   0.00000000000000E+00  -3.83003568940297E-16
      9.08256834814849E-02
      0.00000000000000E+00   0.00000000000000E+00   0.00000000000000E+00   0.00000000000000E+00  -7.93850714719781E-17
     -5.48548692918504E-19  -7.99336201648966E-17   3.38289731922637E-16   9.08256834814849E-02   9.08256834814849E-02
      0.00000000000000E+00   0.00000000000000E+00   5.80044958822892E-17   1.62747524616345E-20   5.80207706347508E-17
      5.35863611570034E-16  -5.00000000000000E-01  -5.00000000000000E-01   0.00000000000000E+00   0.00000000000000E+00
      0.00000000000000E+00   0.00000000000000E+00   0.00000000000000E+00  -3.96138433604140E-16
      1.07968800776424E-01
      0.00000000000000E+00   0.00000000000000E+00   0.00000000000000E+00   0.00000000000000E+00  -9.32304183685034E-17
     -9.19654049365689E-19  -9.41500724178691E-17   3.36211106063527E-16   1.07968800776424E-01   1.07968800776424E-01
      0.00000000000000E+00   0.00000000000000E+00   8.41623955718487E-17   1.89931840205567E-20   8.41813887558693E-17
      5.38623572675529E-16  -5.00000000000000E-01  -5.00000000000000E-01   0.00000000000000E+00   0.00000000000000E+00
      0.00000000000000E+00   0.00000000000000E+00   0.00000000000000E+00  -4.10942542485714E-16
      1.27854816838553E-01
      0.00000000000000E+00   0.00000000000000E+00   0.00000000000000E+00   0.00000000000000E+00  -1.31624825319560E-16
     -1.57834233920973E-18  -1.33203167658770E-16   3.33963229750409E-16   1.27854816838553E-01   1.27854816838553E-01
      0.00000000000000E+00   0.00000000000000E+00   1.19580909797152E-16   2.21812559924280E-20   1.19603091053144E-16
      5.41996648420991E-16  -5.00000000000000E-01  -5.00000000000000E-01   0.00000000000000E+00   0.00000000000000E+00
      0.00000000000000E+00   0.00000000000000E+00   0.00000000000000E+00  -4.26939879778944E-16
      1.50922595470623E-01
      0.00000000000000E+00   0.00000000000000E+00   0.00000000000000E+00   0.00000000000000E+00  -1.72537451660879E-16
     -2.69981393572958E-18  -1.75237265596609E-16   3.31662415861775E-16   1.50922595470623E-01   1.50922595470623E-01
      0.00000000000000E+00   0.00000000000000E+00   1.64664082945783E-16   2.57209221047105E-20   1.64689803867888E-16
      5.46219082605035E-16  -5.00000000000000E-01  -5.00000000000000E-01   0.00000000000000E+00   0.00000000000000E+00
      0.00000000000000E+00   0.00000000000000E+00   0.00000000000000E+00  -4.43409817201226E-16
      1.77373648302063E-01
      0.00000000000000E+00   0.00000000000000E+00   0.00000000000000E+00   0.00000000000000E+00  -2.43819442286711E-16
     -4.38874928206281E-18  -2.48208191568774E-16   3.29517306982390E-16   1.77373648302063E-01   1.77373648302063E-01
      0.00000000000000E+00   0.00000000000000E+00   2.32204928583999E-16   2.91136984157433E-20   2.32234042282414E-16
      5.51543114453617E-16  -5.00000000000000E-01  -5.00000000000000E-01   0.00000000000000E+00   0.00000000000000E+00
      0.00000000000000E+00   0.00000000000000E+00   0.00000000000000E+00  -4.59055474091894E-16
      2.07704188882114E-01
      0.00000000000000E+00   0.00000000000000E+00   0.00000000000000E+00   0.00000000000000E+00  -3.10129477144129E-16
     -6.50564288797823E-18  -3.16635120032107E-16   3.27712418478777E-16   2.07704188882114E-01   2.07704188882114E-01
      0.00000000000000E+00   0.00000000000000E+00   3.14251869620392E-16   3.16988153084666E-20   3.14283568435700E-16
      5.58267334106241E-16  -5.00000000000000E-01  -5.00000000000000E-01   0.00000000000000E+00   0.00000000000000E+00
      0.00000000000000E+00   0.00000000000000E+00   0.00000000000000E+00  -4.72781566831885E-16
      2.42078801539506E-01
      0.00000000000000E+00   0.00000000000000E+00   0.00000000000000E+00   0.00000000000000E+00  -3.88006140348016E-16
     -8.61883475510276E-18  -3.96624975103118E-16   3.26341484548202E-16   2.42078801539506E-01   2.42078801539506E-01
      0.00000000000000E+00   0.00000000000000E+00   3.97836963116150E-16   3.31471669301061E-20   3.97870110283080E-16
      5.66495828206134E-16  -5.00000000000000E-01  -5.00000000000000E-01   0.00000000000000E+00   0.00000000000000E+00
      0.00000000000000E+00   0.00000000000000E+00   0.00000000000000E+00  -4.84030774915887E-16
      2.81036695884549E-01
      0.00000000000000E+00   0.00000000000000E+00   0.00000000000000E+00   0.00000000000000E+00  -4.78883204942816E-16
     -1.03791897595881E-17  -4.89262394702404E-16   3.25331216067933E-16   2.81036695884549E-01   2.81036695884549E-01
      0.00000000000000E+00   0.00000000000000E+00   4.76710838002878E-16   3.37596301665308E-20   4.76744597633044E-16
      5.76265093388340E-16  -5.00000000000000E-01  -5.00000000000000E-01   0.00000000000000E+00   0.00000000000000E+00
      0.00000000000000E+00   0.00000000000000E+00   0.00000000000000E+00  -4.93285087048541E-16
      3.25188976142266E-01
      0.00000000000000E+00   0.00000000000000E+00   0.00000000000000E+00   0.00000000000000E+00  -5.84866697803854E-16
     -1.16911543633521E-17  -5.96557852167206E-16   3.24549534977362E-16   3.25188976142266E-01   3.25188976142266E-01
      0.00000000000000E+00   0.00000000000000E+00   5.81304214825529E-16   3.39922338679665E-20   5.81338207059397E-16
      5.87562112850592E-16  -5.00000000000000E-01  -5.00000000000000E-01   0.00000000000000E+00   0.00000000000000E+00
      0.00000000000000E+00   0.00000000000000E+00   0.00000000000000E+00  -5.01357245066834E-16
      3.75816924171113E-01
      0.00000000000000E+00   0.00000000000000E+00   0.00000000000000E+00   0.00000000000000E+00  -7.00420530743794E-16
     -1.26343193961865E-17  -7.13054850139980E-16   3.23867110101595E-16   3.75816924171113E-01   3.75816924171113E-01
      0.00000000000000E+00   0.00000000000000E+00   7.03404408932870E-16   3.41063524191743E-20   7.03438515285289E-16
      6.00532806200823E-16  -5.00000000000000E-01  -5.00000000000000E-01   0.00000000000000E+00   0.00000000000000E+00
      0.00000000000000E+00   0.00000000000000E+00   0.00000000000000E+00  -5.09051670375050E-16
      4.33870304577526E-01
      0.00000000000000E+00   0.00000000000000E+00   0.00000000000000E+00   0.00000000000000E+00  -8.77447299214142E-16
     -1.33425199572368E-17  -8.90789819171379E-16   3.23181203380333E-16   4.33870304577526E-01   4.33870304577526E-01
      0.00000000000000E+00   0.00000000000000E+00   8.91645028925165E-16   3.42017677330136E-20   8.91679230692898E-16
      6.15204748149247E-16  -5.00000000000000E-01  -5.00000000000000E-01   0.00000000000000E+00   0.00000000000000E+00
      0.00000000000000E+00   0.00000000000000E+00   0.00000000000000E+00  -5.16938911880501E-16
      5.00438180776878E-01
      0.00000000000000E+00   0.00000000000000E+00   0.00000000000000E+00   0.00000000000000E+00  -1.17381464829137E-15
     -1.39564347176790E-17  -1.18777108300905E-15   3.22406319061844E-16   5.00438180776878E-01   5.00438180776878E-01
      0.00000000000000E+00   0.00000000000000E+00   1.16564161292799E-15   3.43213294034281E-20   1.16567593425740E-15
      6.31550717290945E-16  -5.00000000000000E-01  -5.00000000000000E-01   0.00000000000000E+00   0.00000000000000E+00
      0.00000000000000E+00   0.00000000000000E+00   0.00000000000000E+00  -5.25433913736098E-16
      5.77656917168127E-01
      0.00000000000000E+00   0.00000000000000E+00   0.00000000000000E+00   0.00000000000000E+00  -1.67332854230127E-15
     -1.45546108528151E-17  -1.68788315315409E-15   3.21476890436557E-16   5.77656917168127E-01   5.77656917168127E-01
      0.00000000000000E+00   0.00000000000000E+00   1.69027123405258E-15   3.44760080613163E-20   1.69030571006064E-15
      6.49564916209736E-16  -5.00000000000000E-01  -5.00000000000000E-01   0.00000000000000E+00   0.00000000000000E+00
      0.00000000000000E+00   0.00000000000000E+00   0.00000000000000E+00  -5.34759454593430E-16
      6.67230651381976E-01
      0.00000000000000E+00   0.00000000000000E+00   0.00000000000000E+00   0.00000000000000E+00  -2.64669648617230E-15
     -1.51635906692114E-17  -2.66186007684152E-15   3.20359066674811E-16   6.67230651381976E-01   6.67230651381976E-01
      0.00000000000000E+00   0.00000000000000E+00   2.66589071617901E-15   3.46568666366810E-20   2.66592537304564E-15
      6.68519228019840E-16  -5.00000000000000E-01  -5.00000000000000E-01   0.00000000000000E+00   0.00000000000000E+00
      0.00000000000000E+00   0.00000000000000E+00   0.00000000000000E+00  -5.44610750410996E-16
      7.71136183070041E-01
      0.00000000000000E+00   0.00000000000000E+00   0.00000000000000E+00   0.00000000000000E+00  -4.57324855178691E-15
     -1.57128738754471E-17  -4.58896142566235E-15   3.19062406105510E-16   7.71136183070041E-01   7.71136183070041E-01
      0.00000000000000E+00   0.00000000000000E+00   4.59382726305581E-15   3.48695717250505E-20   4.59386213262753E-15
      6.86993570676760E-16  -5.00000000000000E-01  -5.00000000000000E-01   0.00000000000000E+00   0.00000000000000E+00
      0.00000000000000E+00   0.00000000000000E+00   0.00000000000000E+00  -5.54003941652738E-16
      8.88895785649848E-01
      0.00000000000000E+00   0.00000000000000E+00   0.00000000000000E+00   0.00000000000000E+00  -8.53325105105191E-15
     -1.61973894060880E-17  -8.54944844045800E-15   3.17597096062705E-16   8.88895785649848E-01   8.88895785649848E-01
      0.00000000000000E+00   0.00000000000000E+00   8.54245335013984E-15   3.51119777864065E-20   8.54248846211763E-15
      7.04819961291117E-16  -5.00000000000000E-01  -5.00000000000000E-01   0.00000000000000E+00   0.00000000000000E+00
      0.00000000000000E+00   0.00000000000000E+00   0.00000000000000E+00  -5.62826696982993E-16
      1.00000000000000E+00
      0.00000000000000E+00   0.00000000000000E+00   0.00000000000000E+00   0.00000000000000E+00  -1.54603885874886E-14
     -1.66568618480633E-17  -1.54770454493366E-14   3.16181293070559E-16   1.00000000000000E+00   1.00000000000000E+00
      0.00000000000000E+00   0.00000000000000E+00   1.54773818092394E-14   3.53362545426693E-20   1.54774171454939E-14
      7.20813759644670E-16  -5.00000000000000E-01  -5.00000000000000E-01   0.00000000000000E+00   0.00000000000000E+00
      0.00000000000000E+00   0.00000000000000E+00   0.00000000000000E+00  -5.70909503289977E-16
      0.00000000000000E+00
      0.00000000000000E+00   0.00000000000000E+00   0.00000000000000E+00   0.00000000000000E+00  -1.54566928345128E-14
     -1.66568441766725E-17  -1.54733496786895E-14   3.16181296915746E-16   1.00000000000000E+00   1.00000000000000E+00
      0.00000000000000E+00   0.00000000000000E+00   1.54689406758179E-14   3.53362545749618E-20   1.54689760120725E-14
      7.20813761491510E-16  -5.00000000000000E-01  -5.00000000000000E-01   0.00000000000000E+00   0.00000000000000E+00
      0.00000000000000E+00   0.00000000000000E+00   0.00000000000000E+00  -5.70909477077858E-16
      1.00000000000000E-03
      0.00000000000000E+00   0.00000000000000E+00   0.00000000000000E+00   0.00000000000000E+00  -1.55208949613758E-14
     -1.66228707569468E-17  -1.55375178321327E-14   3.16153300809162E-16   1.00000000000000E+00   1.00000000000000E+00
      0.00000000000000E+00   0.00000000000000E+00   1.55283561828862E-14   3.53353995211126E-20   1.55283915182858E-14
      7.20683798819571E-16  -4.98000000000000E-01  -4.98000000000000E-01   0.00000000000000E+00   0.00000000000000E+00
      0.00000000000000E+00   0.00000000000000E+00   0.00000000000000E+00  -5.68774742182434E-16
      2.16000000000000E-03
      0.00000000000000E+00   0.00000000000000E+00   0.00000000000000E+00   0.00000000000000E+00  -1.55839245736239E-14
     -1.65835003443917E-17  -1.56005080739683E-14   3.16120667589361E-16   1.00000000000000E+00   1.00000000000000E+00
      0.00000000000000E+00   0.00000000000000E+00   1.56040037591233E-14   3.53344031601711E-20   1.56040390935265E-14
      7.20532597314533E-16  -4.95680000000000E-01  -4.95680000000000E-01   0.00000000000000E+00   0.00000000000000E+00
      0.00000000000000E+00   0.00000000000000E+00   0.00000000000000E+00  -5.66300549446719E-16
      3.53653333333333E-03
      0.00000000000000E+00   0.00000000000000E+00   0.00000000000000E+00   0.00000000000000E+00  -1.56647719357889E-14
     -1.65364376818567E-17  -1.56813083734708E-14   3.16081809012169E-16   1.00000000000000E+00   1.00000000000000E+00
      0.00000000000000E+00   0.00000000000000E+00   1.56803266307871E-14   3.53332153441366E-20   1.56803619640025E-14
      7.20352598338625E-16  -4.92926933333333E-01  -4.92926933333333E-01   0.00000000000000E+00   0.00000000000000E+00
      0.00000000000000E+00   0.00000000000000E+00   0.00000000000000E+00  -5.63366813901587E-16
      5.17001955555556E-03
      0.00000000000000E+00   0.00000000000000E+00   0.00000000000000E+00   0.00000000000000E+00  -1.57574811914408E-14
     -1.64802213186980E-17  -1.57739614127595E-14   3.16035482600809E-16   1.00000000000000E+00   1.00000000000000E+00
      0.00000000000000E+00   0.00000000000000E+00   1.57767773308645E-14   3.53317980148318E-20   1.57768126626625E-14
      7.20138192733148E-16  -4.89659960888889E-01  -4.89659960888889E-01   0.00000000000000E+00   0.00000000000000E+00
      0.00000000000000E+00   0.00000000000000E+00   0.00000000000000E+00  -5.59888815273847E-16
      7.10842320592592E-03
      0.00000000000000E+00   0.00000000000000E+00   0.00000000000000E+00   0.00000000000000E+00  -1.58721431585635E-14
     -1.64129898486138E-17  -1.58885561484121E-14   3.15980206039053E-16   1.00000000000000E+00   1.00000000000000E+00
      0.00000000000000E+00   0.00000000000000E+00   1.58875122747552E-14   3.53301053703302E-20   1.58875476048606E-14
      7.19882649551371E-16  -4.85783153588148E-01  -4.85783153588148E-01   0.00000000000000E+00   0.00000000000000E+00
      0.00000000000000E+00   0.00000000000000E+00   0.00000000000000E+00  -5.55766240022753E-16
      9.40866220436543E-03
      0.00000000000000E+00   0.00000000000000E+00   0.00000000000000E+00   0.00000000000000E+00  -1.60084108618712E-14
     -1.63324405572001E-17  -1.60247433024284E-14   3.15914190343090E-16   1.00000000000000E+00   1.00000000000000E+00
      0.00000000000000E+00   0.00000000000000E+00   1.60161797569423E-14   3.53280820722669E-20   1.60162150850243E-14
      7.19577874257101E-16  -4.81182675591269E-01  -4.81182675591269E-01   0.00000000000000E+00   0.00000000000000E+00
      0.00000000000000E+00   0.00000000000000E+00   0.00000000000000E+00  -5.50880458076213E-16
      1.21382791491803E-02
      0.00000000000000E+00   0.00000000000000E+00   0.00000000000000E+00   0.00000000000000E+00  -1.61709558227852E-14
     -1.62357127870256E-17  -1.61871915355722E-14   3.15835269050048E-16   1.00000000000000E+00   1.00000000000000E+00
      0.00000000000000E+00   0.00000000000000E+00   1.61939645514425E-14   3.53256611788736E-20   1.61939998771037E-14
      7.19214121606823E-16  -4.75723441701639E-01  -4.75723441701639E-01   0.00000000000000E+00   0.00000000000000E+00
      0.00000000000000E+00   0.00000000000000E+00   0.00000000000000E+00  -5.45091225109295E-16
      1.53774245903606E-02
      0.00000000000000E+00   0.00000000000000E+00   0.00000000000000E+00   0.00000000000000E+00  -1.63832284842769E-14
     -1.61192412418957E-17  -1.63993477255188E-14   3.15740807013893E-16   1.00000000000000E+00   1.00000000000000E+00
      0.00000000000000E+00   0.00000000000000E+00   1.63819927223897E-14   3.53227616540465E-20   1.63820280451513E-14
      7.18779649221240E-16  -4.69245150819279E-01  -4.69245150819279E-01   0.00000000000000E+00   0.00000000000000E+00
      0.00000000000000E+00   0.00000000000000E+00   0.00000000000000E+00  -5.38232790348901E-16
      1.92212105138946E-02
      0.00000000000000E+00   0.00000000000000E+00   0.00000000000000E+00   0.00000000000000E+00  -1.66188929618056E-14
     -1.59786223580435E-17  -1.66348715841636E-14   3.15627569965755E-16   1.00000000000000E+00   1.00000000000000E+00
      0.00000000000000E+00   0.00000000000000E+00   1.66302621965962E-14   3.53192853174723E-20   1.66302975158815E-14
      7.18260298354650E-16  -4.61557578972211E-01  -4.61557578972211E-01   0.00000000000000E+00   0.00000000000000E+00
      0.00000000000000E+00   0.00000000000000E+00   0.00000000000000E+00  -5.30109363884736E-16
      2.37312526641745E-02
      0.00000000000000E+00   0.00000000000000E+00   0.00000000000000E+00   0.00000000000000E+00  -1.69172904343998E-14
     -1.58098323568681E-17  -1.69331002667566E-14   3.15493212570070E-16   1.00000000000000E+00   1.00000000000000E+00
      0.00000000000000E+00   0.00000000000000E+00   1.69383330662599E-14   3.53151614592451E-20   1.69383683814213E-14
      7.17646059739253E-16  -4.52537494671651E-01  -4.52537494671651E-01   0.00000000000000E+00   0.00000000000000E+00
      0.00000000000000E+00   0.00000000000000E+00   0.00000000000000E+00  -5.20596865312252E-16
      2.90230354538362E-02
      0.00000000000000E+00   0.00000000000000E+00   0.00000000000000E+00   0.00000000000000E+00  -1.72765214821117E-14
     -1.56063060416650E-17  -1.72921277881534E-14   3.15333539659410E-16   1.00000000000000E+00   1.00000000000000E+00
      0.00000000000000E+00   0.00000000000000E+00   1.72880023819928E-14   3.53102669166202E-20   1.72880376922597E-14
      7.16919180283266E-16  -4.41953929092328E-01  -4.41953929092328E-01   0.00000000000000E+00   0.00000000000000E+00
      0.00000000000000E+00   0.00000000000000E+00   0.00000000000000E+00  -5.09458999012971E-16
      3.52320605937060E-02
      0.00000000000000E+00   0.00000000000000E+00   0.00000000000000E+00   0.00000000000000E+00  -1.77093010090050E-14
     -1.53594078775319E-17  -1.77246604168826E-14   3.15143469707269E-16   1.00000000000000E+00   1.00000000000000E+00
      0.00000000000000E+00   0.00000000000000E+00   1.77225129614376E-14   3.53044568655026E-20   1.77225482658944E-14
      7.16058635262023E-16  -4.29535878812588E-01  -4.29535878812588E-01   0.00000000000000E+00   0.00000000000000E+00
      0.00000000000000E+00   0.00000000000000E+00   0.00000000000000E+00  -4.96418414788691E-16
      4.25173167578198E-02
      0.00000000000000E+00   0.00000000000000E+00   0.00000000000000E+00   0.00000000000000E+00  -1.82449518940564E-14
     -1.50576379134236E-17  -1.82600095319698E-14   3.14916813938830E-16   1.00000000000000E+00   1.00000000000000E+00