DF-ISE text

Info {
  version   = 1.0
  type      = xyplot
  datasets  = [
    "time"
    "S OuterVoltage" "S InnerVoltage" "S QuasiFermiPotential" "S DisplacementCurrent" "S eCurrent"
    "S hCurrent" "S TotalCurrent" "S Charge" "D OuterVoltage" "D InnerVoltage"
    "D QuasiFermiPotential" "D DisplacementCurrent" "D eCurrent" "D hCurrent" "D TotalCurrent"
    "D Charge" "G OuterVoltage" "G InnerVoltage" "G QuasiFermiPotential" "G DisplacementCurrent"
    "G eCurrent" "G hCurrent" "G TotalCurrent" "G Charge" ]
  functions = [
    Time
    OuterVoltage InnerVoltage QuasiFermiPotential DisplacementCurrent eCurrent
    hCurrent TotalCurrent Charge OuterVoltage InnerVoltage
    QuasiFermiPotential DisplacementCurrent eCurrent hCurrent TotalCurrent
    Charge OuterVoltage InnerVoltage QuasiFermiPotential DisplacementCurrent
    eCurrent hCurrent TotalCurrent Charge ]
}

Data {
      0.00000000000000E+00
      0.00000000000000E+00   0.00000000000000E+00   0.00000000000000E+00   0.00000000000000E+00   2.89233091521817E-27
     -1.75327814725044E-33   2.89232916194003E-27   6.52877920596495E-16   0.00000000000000E+00   0.00000000000000E+00
      0.00000000000000E+00   0.00000000000000E+00   3.79148197631850E-27  -1.75448059682905E-33   3.79148022183790E-27
      7.06599900945361E-16  -5.00000000000000E-01  -5.00000000000000E-01   0.00000000000000E+00   0.00000000000000E+00
      0.00000000000000E+00   0.00000000000000E+00   0.00000000000000E+00  -2.30701948067441E-16
      0.00000000000000E+00
      0.00000000000000E+00   0.00000000000000E+00   0.00000000000000E+00   0.00000000000000E+00  -6.22746708867245E-26
      2.03497471276520E-31  -6.22744673892532E-26   6.52877920347486E-16   0.00000000000000E+00   0.00000000000000E+00
      0.00000000000000E+00   0.00000000000000E+00   1.17343823219613E-19   2.03814102803333E-31   1.17343823219817E-19
      7.06599900690350E-16  -5.00000000000000E-01  -5.00000000000000E-01   0.00000000000000E+00   0.00000000000000E+00
      0.00000000000000E+00   0.00000000000000E+00   0.00000000000000E+00  -2.30701948067280E-16
      1.00000000000000E-03
      0.00000000000000E+00   0.00000000000000E+00   0.00000000000000E+00   0.00000000000000E+00  -5.05345019128214E-18
     -2.27194914161996E-21  -5.05572214042376E-18   6.52562221254210E-16   1.00000000000000E-03   1.00000000000000E-03
      0.00000000000000E+00   0.00000000000000E+00   5.07803913393030E-18   9.44296783908197E-22   5.07898343071421E-18
      7.06764724958965E-16  -5.00000000000000E-01  -5.00000000000000E-01   0.00000000000000E+00   0.00000000000000E+00
      0.00000000000000E+00   0.00000000000000E+00   0.00000000000000E+00  -2.31493445281631E-16
      2.17333333333333E-03
      0.00000000000000E+00   0.00000000000000E+00   0.00000000000000E+00   0.00000000000000E+00  -1.11515021494520E-17
     -4.99746888171251E-21  -1.11564996183337E-17   6.52194114065859E-16   2.17333333333333E-03   2.17333333333333E-03
      0.00000000000000E+00   0.00000000000000E+00   1.13328557475801E-17   2.05683205535520E-21   1.13349125796354E-17
      7.06960683802534E-16  -5.00000000000000E-01  -5.00000000000000E-01   0.00000000000000E+00   0.00000000000000E+00
      0.00000000000000E+00   0.00000000000000E+00   0.00000000000000E+00  -2.32415888655838E-16
      3.56568888888889E-03
      0.00000000000000E+00   0.00000000000000E+00   0.00000000000000E+00   0.00000000000000E+00  -1.76444106373145E-17
     -8.31625653696912E-21  -1.76527268938514E-17   6.51760566983221E-16   3.56568888888889E-03   3.56568888888889E-03
      0.00000000000000E+00   0.00000000000000E+00   1.83505950461724E-17   3.38277810119410E-21   1.83539778242736E-17
      7.07196833089602E-16  -5.00000000000000E-01  -5.00000000000000E-01   0.00000000000000E+00   0.00000000000000E+00
      0.00000000000000E+00   0.00000000000000E+00   0.00000000000000E+00  -2.33501715527824E-16
      5.21795081481481E-03
      0.00000000000000E+00   0.00000000000000E+00   0.00000000000000E+00   0.00000000000000E+00  -2.59435731203321E-17
     -1.23747568378272E-20  -2.59559478771699E-17   6.51250753911784E-16   5.21795081481481E-03   5.21795081481481E-03
      0.00000000000000E+00   0.00000000000000E+00   2.65747735738824E-17   4.96321499313879E-21   2.65797367888755E-17
      7.07482177415511E-16  -5.00000000000000E-01  -5.00000000000000E-01   0.00000000000000E+00   0.00000000000000E+00
      0.00000000000000E+00   0.00000000000000E+00   0.00000000000000E+00  -2.34777742458933E-16
      7.17863496691358E-03
      0.00000000000000E+00   0.00000000000000E+00   0.00000000000000E+00   0.00000000000000E+00  -3.65938480230576E-17
     -1.73619523360875E-20  -3.66112099753937E-17   6.50652426993175E-16   7.17863496691358E-03   7.17863496691358E-03
      0.00000000000000E+00   0.00000000000000E+00   3.66160184539249E-17   6.84663871263012E-21   3.66228650926376E-17
      7.07828030682318E-16  -5.00000000000000E-01  -5.00000000000000E-01   0.00000000000000E+00   0.00000000000000E+00
      0.00000000000000E+00   0.00000000000000E+00   0.00000000000000E+00  -2.36274238767828E-16
      9.50531349407078E-03
      0.00000000000000E+00   0.00000000000000E+00   0.00000000000000E+00   0.00000000000000E+00  -4.86905167052234E-17
     -2.35237302954602E-20  -4.87140404355189E-17   6.49951913659928E-16   9.50531349407078E-03   9.50531349407078E-03
      0.00000000000000E+00   0.00000000000000E+00   4.85900331068053E-17   9.08972221685886E-21   4.85991228290221E-17
      7.08248710318901E-16  -5.00000000000000E-01  -5.00000000000000E-01   0.00000000000000E+00   0.00000000000000E+00
      0.00000000000000E+00   0.00000000000000E+00   0.00000000000000E+00  -2.38024911398858E-16
      1.22663053462973E-02
      0.00000000000000E+00   0.00000000000000E+00   0.00000000000000E+00   0.00000000000000E+00  -6.34797564621465E-17
     -3.11824800827030E-20  -6.35109389422292E-17   6.49134228719325E-16   1.22663053462973E-02   1.22663053462973E-02
      0.00000000000000E+00   0.00000000000000E+00   6.27452446571535E-17   1.17576200367592E-20   6.27570022771902E-17
      7.08762469434066E-16  -5.00000000000000E-01  -5.00000000000000E-01   0.00000000000000E+00   0.00000000000000E+00
      0.00000000000000E+00   0.00000000000000E+00   0.00000000000000E+00  -2.40066608251206E-16
      1.55426823442728E-02
      0.00000000000000E+00   0.00000000000000E+00   0.00000000000000E+00   0.00000000000000E+00  -8.09683009214247E-17
     -4.07636373463191E-20  -8.10090645587710E-17   6.48183372265728E-16   1.55426823442728E-02   1.55426823442728E-02
      0.00000000000000E+00   0.00000000000000E+00   8.08290852565257E-17   1.49232810275790E-20   8.08440085375533E-17
      7.09392752763852E-16  -5.00000000000000E-01  -5.00000000000000E-01   0.00000000000000E+00   0.00000000000000E+00
      0.00000000000000E+00   0.00000000000000E+00   0.00000000000000E+00  -2.42438574857472E-16
      1.94306497152037E-02
      0.00000000000000E+00   0.00000000000000E+00   0.00000000000000E+00   0.00000000000000E+00  -1.03260137560791E-16
     -5.28310392405343E-20  -1.03312968600032E-16   6.47082915157975E-16   1.94306497152037E-02   1.94306497152037E-02
      0.00000000000000E+00   0.00000000000000E+00   1.00901012138134E-16   1.86648598390793E-20   1.00919676997973E-16
      7.10169889704400E-16  -5.00000000000000E-01  -5.00000000000000E-01   0.00000000000000E+00   0.00000000000000E+00
      0.00000000000000E+00   0.00000000000000E+00   0.00000000000000E+00  -2.45181031532669E-16
      2.40443709953751E-02
      0.00000000000000E+00   0.00000000000000E+00   0.00000000000000E+00   0.00000000000000E+00  -1.31706547206810E-16
     -6.81324138495503E-20  -1.31774679620659E-16   6.45817016156517E-16   2.40443709953751E-02   2.40443709953751E-02
      0.00000000000000E+00   0.00000000000000E+00   1.23535275037737E-16   2.30597972959080E-20   1.23558334835033E-16
      7.11133371453299E-16  -5.00000000000000E-01  -5.00000000000000E-01   0.00000000000000E+00   0.00000000000000E+00
      0.00000000000000E+00   0.00000000000000E+00   0.00000000000000E+00  -2.48332747437083E-16
      2.95193202478451E-02
      0.00000000000000E+00   0.00000000000000E+00   0.00000000000000E+00   0.00000000000000E+00  -1.68554596774889E-16
     -8.76539683180468E-20  -1.68642250743207E-16   6.44372066629393E-16   2.95193202478451E-02   2.95193202478451E-02
      0.00000000000000E+00   0.00000000000000E+00   1.47993600900525E-16   2.81735126155006E-20   1.48021774413141E-16
      7.12334893557706E-16  -5.00000000000000E-01  -5.00000000000000E-01   0.00000000000000E+00   0.00000000000000E+00
      0.00000000000000E+00   0.00000000000000E+00   0.00000000000000E+00  -2.51927180844438E-16
      3.60162600274429E-02
      0.00000000000000E+00   0.00000000000000E+00   0.00000000000000E+00   0.00000000000000E+00  -2.20300674135748E-16
     -1.12677009626057E-19  -2.20413351145374E-16   6.42739178329985E-16   3.60162600274429E-02   3.60162600274429E-02
      0.00000000000000E+00   0.00000000000000E+00   1.69426707880092E-16   3.40400237381094E-20   1.69460747903831E-16
      7.13842333521226E-16  -5.00000000000000E-01  -5.00000000000000E-01   0.00000000000000E+00   0.00000000000000E+00
      0.00000000000000E+00   0.00000000000000E+00   0.00000000000000E+00  -2.55986730823696E-16
      4.37259618992322E-02
      0.00000000000000E+00   0.00000000000000E+00   0.00000000000000E+00   0.00000000000000E+00  -2.37421551536174E-16
     -1.44813641745158E-19  -2.37566365177919E-16   6.40917824883171E-16   4.37259618992322E-02   4.37259618992322E-02
      0.00000000000000E+00   0.00000000000000E+00   2.37364548832597E-16   4.06325341398669E-20   2.37405181366737E-16
      7.15744869871631E-16  -5.00000000000000E-01  -5.00000000000000E-01   0.00000000000000E+00   0.00000000000000E+00
      0.00000000000000E+00   0.00000000000000E+00   0.00000000000000E+00  -2.60514447858125E-16
      5.27720120954650E-02
      0.00000000000000E+00   0.00000000000000E+00   0.00000000000000E+00   0.00000000000000E+00  -2.87479995272220E-16
     -1.85493231566236E-19  -2.87665488503786E-16   6.38942146890048E-16   5.27720120954650E-02   5.27720120954650E-02
      0.00000000000000E+00   0.00000000000000E+00   2.87547210028736E-16   4.77473424475834E-20   2.87594957371184E-16
      7.18131058605698E-16  -5.00000000000000E-01  -5.00000000000000E-01   0.00000000000000E+00   0.00000000000000E+00
      0.00000000000000E+00   0.00000000000000E+00   0.00000000000000E+00  -2.65429756191112E-16
      6.33860443257115E-02
      0.00000000000000E+00   0.00000000000000E+00   0.00000000000000E+00   0.00000000000000E+00  -3.44300521877307E-16
     -2.36440936262384E-19  -3.44536962813569E-16   6.36844176288997E-16   6.33860443257115E-02   6.33860443257115E-02
      0.00000000000000E+00   0.00000000000000E+00   3.43875555097155E-16   5.51245816928769E-20   3.43930679678848E-16
      7.21134653456575E-16  -5.00000000000000E-01  -5.00000000000000E-01   0.00000000000000E+00   0.00000000000000E+00
      0.00000000000000E+00   0.00000000000000E+00   0.00000000000000E+00  -2.70661266249839E-16
      7.58398421425341E-02
      0.00000000000000E+00   0.00000000000000E+00   0.00000000000000E+00   0.00000000000000E+00  -4.06639975963916E-16
     -2.98930008327351E-19  -4.06938905972243E-16   6.34677657569280E-16   7.58398421425341E-02   7.58398421425341E-02
      0.00000000000000E+00   0.00000000000000E+00   4.05936798447611E-16   6.23677918522555E-20   4.05999166239463E-16
      7.24922123169978E-16  -5.00000000000000E-01  -5.00000000000000E-01   0.00000000000000E+00   0.00000000000000E+00
      0.00000000000000E+00   0.00000000000000E+00   0.00000000000000E+00  -2.76089278432073E-16
      9.04522982476059E-02
      0.00000000000000E+00   0.00000000000000E+00   0.00000000000000E+00   0.00000000000000E+00  -4.73198972118340E-16
     -3.72935391732699E-19  -4.73571907510072E-16   6.32520920725834E-16   9.04522982476059E-02   9.04522982476059E-02
      0.00000000000000E+00   0.00000000000000E+00   4.72584876944724E-16   6.89789304733425E-20   4.72653855875198E-16
      7.29693309531829E-16  -5.00000000000000E-01  -5.00000000000000E-01   0.00000000000000E+00   0.00000000000000E+00
      0.00000000000000E+00   0.00000000000000E+00   0.00000000000000E+00  -2.81540243795472E-16
      1.07597580077557E-01
      0.00000000000000E+00   0.00000000000000E+00   0.00000000000000E+00   0.00000000000000E+00  -5.39520619944273E-16
     -4.56020561196393E-19  -5.39976640505469E-16   6.30474302163213E-16   1.07597580077557E-01   1.07597580077557E-01
      0.00000000000000E+00   0.00000000000000E+00   5.39578646145530E-16   7.44646810745643E-20   5.39653110826604E-16
      7.35674029994800E-16  -5.00000000000000E-01  -5.00000000000000E-01   0.00000000000000E+00   0.00000000000000E+00
      0.00000000000000E+00   0.00000000000000E+00   0.00000000000000E+00  -2.86793685197936E-16
      1.27714710758033E-01
      0.00000000000000E+00   0.00000000000000E+00   0.00000000000000E+00   0.00000000000000E+00  -6.02229970167350E-16
     -5.42556535002620E-19  -6.02772526702353E-16   6.28647494931494E-16   1.27714710758033E-01   1.27714710758033E-01
      0.00000000000000E+00   0.00000000000000E+00   6.03149645532608E-16   7.85008513910078E-20   6.03228146383999E-16
      7.43094489474650E-16  -5.00000000000000E-01  -5.00000000000000E-01   0.00000000000000E+00   0.00000000000000E+00
      0.00000000000000E+00   0.00000000000000E+00   0.00000000000000E+00  -2.91611609082278E-16
      1.51318810756457E-01
      0.00000000000000E+00   0.00000000000000E+00   0.00000000000000E+00   0.00000000000000E+00  -6.57260479733016E-16
     -6.24403335475074E-19  -6.57884883068491E-16   6.27134243639699E-16   1.51318810756457E-01   1.51318810756457E-01
      0.00000000000000E+00   0.00000000000000E+00   6.57745173701805E-16   8.10728520603532E-20   6.57826246553866E-16
      7.52148599324179E-16  -5.00000000000000E-01  -5.00000000000000E-01   0.00000000000000E+00   0.00000000000000E+00
      0.00000000000000E+00   0.00000000000000E+00   0.00000000000000E+00  -2.95795607185701E-16
      1.79014288087943E-01
      0.00000000000000E+00   0.00000000000000E+00   0.00000000000000E+00   0.00000000000000E+00  -7.00273470482923E-16
     -6.93788518253427E-19  -7.00967259001176E-16   6.25979974784604E-16   1.79014288087943E-01   1.79014288087943E-01
      0.00000000000000E+00   0.00000000000000E+00   7.01313659780678E-16   8.24761769305478E-20   7.01396135957609E-16
      7.62936820335728E-16  -5.00000000000000E-01  -5.00000000000000E-01   0.00000000000000E+00   0.00000000000000E+00
      0.00000000000000E+00   0.00000000000000E+00   0.00000000000000E+00  -2.99258363764764E-16
      2.11510314823552E-01
      0.00000000000000E+00   0.00000000000000E+00   0.00000000000000E+00   0.00000000000000E+00  -7.32634324453860E-16
     -7.47059960219305E-19  -7.33381384414080E-16   6.25160288626380E-16   2.11510314823552E-01   2.11510314823552E-01
      0.00000000000000E+00   0.00000000000000E+00   7.33038661357865E-16   8.31497047030167E-20   7.33121811062568E-16
      7.75410955691893E-16  -5.00000000000000E-01  -5.00000000000000E-01   0.00000000000000E+00   0.00000000000000E+00
      0.00000000000000E+00   0.00000000000000E+00   0.00000000000000E+00  -3.02068646804163E-16
      2.49638986193334E-01
      0.00000000000000E+00   0.00000000000000E+00   0.00000000000000E+00   0.00000000000000E+00  -7.54737832427236E-16
     -7.85987220875876E-19  -7.55523819648112E-16   6.24593241114252E-16   2.49638986193334E-01   2.49638986193334E-01
      0.00000000000000E+00   0.00000000000000E+00   7.55720468421923E-16   8.34707294988837E-20   7.55803939151422E-16
      7.89365456337159E-16  -5.00000000000000E-01  -5.00000000000000E-01   0.00000000000000E+00   0.00000000000000E+00
      0.00000000000000E+00   0.00000000000000E+00   0.00000000000000E+00  -3.04417626048697E-16
      2.93868244982280E-01
      0.00000000000000E+00   0.00000000000000E+00   0.00000000000000E+00   0.00000000000000E+00  -7.70423618668649E-16
     -8.14425340442231E-19  -7.71238044009091E-16   6.24194485979037E-16   2.93868244982280E-01   2.93868244982280E-01
      0.00000000000000E+00   0.00000000000000E+00   7.71553770568805E-16   8.36599881094880E-20   7.71637430556915E-16
      8.04381349953349E-16  -5.00000000000000E-01  -5.00000000000000E-01   0.00000000000000E+00   0.00000000000000E+00
      0.00000000000000E+00   0.00000000000000E+00   0.00000000000000E+00  -3.06473388008974E-16
      3.45174185177458E-01
      0.00000000000000E+00   0.00000000000000E+00   0.00000000000000E+00   0.00000000000000E+00  -7.82078653593685E-16
     -8.34866427592219E-19  -7.82913520021277E-16   6.23915429114022E-16   3.45174185177458E-01   3.45174185177458E-01
      0.00000000000000E+00   0.00000000000000E+00   7.81910045117221E-16   8.38147747250070E-20   7.81993859891946E-16
      8.20373668410719E-16  -5.00000000000000E-01  -5.00000000000000E-01   0.00000000000000E+00   0.00000000000000E+00
      0.00000000000000E+00   0.00000000000000E+00   0.00000000000000E+00  -3.08316847720658E-16
      4.04689075803865E-01
      0.00000000000000E+00   0.00000000000000E+00   0.00000000000000E+00   0.00000000000000E+00  -7.88647577447242E-16
     -8.48303938928531E-19  -7.89495881386170E-16   6.23735275044058E-16   4.04689075803865E-01   4.04689075803865E-01
      0.00000000000000E+00   0.00000000000000E+00   7.90410737418914E-16   8.39693869670522E-20   7.90494706805881E-16
      8.37577762063045E-16  -5.00000000000000E-01  -5.00000000000000E-01   0.00000000000000E+00   0.00000000000000E+00
      0.00000000000000E+00   0.00000000000000E+00   0.00000000000000E+00  -3.09973078966505E-16
      4.73726348930496E-01
      0.00000000000000E+00   0.00000000000000E+00   0.00000000000000E+00   0.00000000000000E+00  -7.93735728619466E-16
     -8.56401601025042E-19  -7.94592130220491E-16   6.23627932177148E-16   4.73726348930496E-01   4.73726348930496E-01
      0.00000000000000E+00   0.00000000000000E+00   7.94839688442331E-16   8.41358042169070E-20   7.94923824246548E-16
      8.56527615754971E-16  -5.00000000000000E-01  -5.00000000000000E-01   0.00000000000000E+00   0.00000000000000E+00
      0.00000000000000E+00   0.00000000000000E+00   0.00000000000000E+00  -3.11534687279967E-16
      5.52889088782367E-01
      0.00000000000000E+00   0.00000000000000E+00   0.00000000000000E+00   0.00000000000000E+00  -7.96759816737173E-16
     -8.60912133296778E-19  -7.97620728870470E-16   6.23568527524759E-16   5.52889088782367E-01   5.52889088782367E-01
      0.00000000000000E+00   0.00000000000000E+00   7.96290568777968E-16   8.43164849142811E-20   7.96374885262882E-16
      8.77647435738047E-16  -5.00000000000000E-01  -5.00000000000000E-01   0.00000000000000E+00   0.00000000000000E+00
      0.00000000000000E+00   0.00000000000000E+00   0.00000000000000E+00  -3.13123928649668E-16
      6.41551357416463E-01
      0.00000000000000E+00   0.00000000000000E+00   0.00000000000000E+00   0.00000000000000E+00  -7.98587714378110E-16
     -8.65244205360891E-19  -7.99452958583471E-16   6.23511731636479E-16   6.41551357416463E-01   6.41551357416463E-01
      0.00000000000000E+00   0.00000000000000E+00   7.98924162363780E-16   8.45087330746799E-20   7.99008671096855E-16
      9.00928996732147E-16  -5.00000000000000E-01  -5.00000000000000E-01   0.00000000000000E+00   0.00000000000000E+00
      0.00000000000000E+00   0.00000000000000E+00   0.00000000000000E+00  -3.14879878951304E-16
      7.40853098286650E-01
      0.00000000000000E+00   0.00000000000000E+00   0.00000000000000E+00   0.00000000000000E+00  -8.08748975443477E-16
     -8.81739620555476E-19  -8.09630715064032E-16   6.23297795661341E-16   7.40853098286650E-01   7.40853098286650E-01
      0.00000000000000E+00   0.00000000000000E+00   8.06976293557232E-16   8.47120502652861E-20   8.07061005607497E-16
      9.26653351392676E-16  -5.00000000000000E-01  -5.00000000000000E-01   0.00000000000000E+00   0.00000000000000E+00
      0.00000000000000E+00   0.00000000000000E+00   0.00000000000000E+00  -3.17211205830763E-16
      8.54719094484464E-01
      0.00000000000000E+00   0.00000000000000E+00   0.00000000000000E+00   0.00000000000000E+00  -8.61761048922530E-16
     -9.85328037178936E-19  -8.62746376959709E-16   6.22031077451305E-16   8.54719094484464E-01   8.54719094484464E-01
      0.00000000000000E+00   0.00000000000000E+00   8.60540853365550E-16   8.49267903441255E-20   8.60625780155894E-16
      9.55379371597425E-16  -5.00000000000000E-01  -5.00000000000000E-01   0.00000000000000E+00   0.00000000000000E+00
      0.00000000000000E+00   0.00000000000000E+00   0.00000000000000E+00  -3.22244616921222E-16
      9.85285436791291E-01
      0.00000000000000E+00   0.00000000000000E+00   0.00000000000000E+00   0.00000000000000E+00  -9.94566425493164E-16
     -1.28202704713468E-18  -9.95848452540299E-16   6.18976275480646E-16   9.85285436791291E-01   9.85285436791291E-01
      0.00000000000000E+00   0.00000000000000E+00   9.95136227016789E-16   8.51505067696752E-20   9.95221377523559E-16
      9.87236761795897E-16  -5.00000000000000E-01  -5.00000000000000E-01   0.00000000000000E+00   0.00000000000000E+00
      0.00000000000000E+00   0.00000000000000E+00   0.00000000000000E+00  -3.31679373204191E-16
      1.00000000000000E+00
      0.00000000000000E+00   0.00000000000000E+00   0.00000000000000E+00   0.00000000000000E+00  -1.01659061144905E-15
     -1.33584899191224E-18  -1.01792646044096E-15   6.18492852631162E-16   1.00000000000000E+00   1.00000000000000E+00
      0.00000000000000E+00   0.00000000000000E+00   1.01813717730491E-15   8.51742218211132E-20   1.01822235152673E-15
      9.90740334435635E-16  -5.00000000000000E-01  -5.00000000000000E-01   0.00000000000000E+00   0.00000000000000E+00
      0.00000000000000E+00   0.00000000000000E+00   0.00000000000000E+00  -3.33057731902243E-16
      0.00000000000000E+00
      0.00000000000000E+00   0.00000000000000E+00   0.00000000000000E+00   0.00000000000000E+00  -1.01683613547575E-15
     -1.33584888913960E-18  -1.01817198436489E-15   6.18492853536982E-16   1.00000000000000E+00   1.00000000000000E+00
      0.00000000000000E+00   0.00000000000000E+00   1.01779574576798E-15   8.51742218243336E-20   1.01788091998981E-15
      9.90740334876689E-16  -5.00000000000000E-01  -5.00000000000000E-01   0.00000000000000E+00   0.00000000000000E+00
      0.00000000000000E+00   0.00000000000000E+00   0.00000000000000E+00  -3.33057729848399E-16
      1.00000000000000E-03
      0.00000000000000E+00   0.00000000000000E+00   0.00000000000000E+00   0.00000000000000E+00  -1.01599976955997E-15
     -1.33401146757457E-18  -1.01733378102755E-15   6.18493609789310E-16   1.00000000000000E+00   1.00000000000000E+00
      0.00000000000000E+00   0.00000000000000E+00   1.01797181272179E-15   8.51742641279222E-20   1.01805698698592E-15
      9.90709885542616E-16  -4.98000000000000E-01  -4.98000000000000E-01   0.00000000000000E+00   0.00000000000000E+00
      0.00000000000000E+00   0.00000000000000E+00   0.00000000000000E+00  -3.30780646310868E-16
      2.17333333333333E-03
      0.00000000000000E+00   0.00000000000000E+00   0.00000000000000E+00   0.00000000000000E+00  -1.01648617171113E-15
     -1.33187527304009E-18  -1.01781804698417E-15   6.18494279921945E-16   1.00000000000000E+00   1.00000000000000E+00
      0.00000000000000E+00   0.00000000000000E+00   1.01638477710868E-15   8.51743132237764E-20   1.01646995142191E-15
      9.90674060351386E-16  -4.95653333333333E-01  -4.95653333333333E-01   0.00000000000000E+00   0.00000000000000E+00
      0.00000000000000E+00   0.00000000000000E+00   0.00000000000000E+00  -3.28109806007123E-16
      3.58133333333333E-03
      0.00000000000000E+00   0.00000000000000E+00   0.00000000000000E+00   0.00000000000000E+00  -1.01683813903130E-15
     -1.32933992963851E-18  -1.01816747896093E-15   6.18494772736656E-16   1.00000000000000E+00   1.00000000000000E+00
      0.00000000000000E+00   0.00000000000000E+00   1.01465674490585E-15   8.51743713651221E-20   1.01474191927721E-15
      9.90630929766527E-16  -4.92837333333333E-01  -4.92837333333333E-01   0.00000000000000E+00   0.00000000000000E+00
      0.00000000000000E+00   0.00000000000000E+00   0.00000000000000E+00  -3.24906143590314E-16
      5.27093333333333E-03
      0.00000000000000E+00   0.00000000000000E+00   0.00000000000000E+00   0.00000000000000E+00  -1.01880098343626E-15
     -1.32633865006388E-18  -1.02012732208633E-15   6.18494906566205E-16   1.00000000000000E+00   1.00000000000000E+00
      0.00000000000000E+00   0.00000000000000E+00   1.01241806593127E-15   8.51744399927116E-20   1.01250324037126E-15
      9.90578966712704E-16  -4.89458133333333E-01  -4.89458133333333E-01   0.00000000000000E+00   0.00000000000000E+00
      0.00000000000000E+00   0.00000000000000E+00   0.00000000000000E+00  -3.21063717193890E-16
      7.29845333333333E-03
      0.00000000000000E+00   0.00000000000000E+00   0.00000000000000E+00   0.00000000000000E+00  -1.01137986009195E-15
     -1.32279639463495E-18  -1.01270265648658E-15   6.18494402322279E-16   1.00000000000000E+00   1.00000000000000E+00
      0.00000000000000E+00   0.00000000000000E+00   1.01242892626851E-15   8.51745206885687E-20   1.01251410078920E-15
      9.90516311414835E-16  -4.85403093333333E-01  -4.85403093333333E-01   0.00000000000000E+00   0.00000000000000E+00
      0.00000000000000E+00   0.00000000000000E+00   0.00000000000000E+00  -3.16455670401842E-16
      9.70444373333333E-03
      0.00000000000000E+00   0.00000000000000E+00   0.00000000000000E+00   0.00000000000000E+00  -1.00992508140355E-15
     -1.31867715470574E-18  -1.01124375855826E-15   6.18492850598350E-16   1.00000000000000E+00   1.00000000000000E+00
      0.00000000000000E+00   0.00000000000000E+00   1.01090532505860E-15   8.51746140726863E-20   1.01099049967267E-15
      9.90441531051016E-16  -4.80591112533333E-01  -4.80591112533333E-01   0.00000000000000E+00   0.00000000000000E+00
      0.00000000000000E+00   0.00000000000000E+00   0.00000000000000E+00  -3.10991566517307E-16
      1.25595523413333E-02
      0.00000000000000E+00   0.00000000000000E+00   0.00000000000000E+00   0.00000000000000E+00  -1.00798870553928E-15
     -1.31390818887221E-18  -1.00930261372816E-15   6.18489645670159E-16   1.00000000000000E+00   1.00000000000000E+00
      0.00000000000000E+00   0.00000000000000E+00   1.00964013651450E-15   8.51747214943914E-20   1.00972531123599E-15
      9.90352177909856E-16  -4.74880895317333E-01  -4.74880895317333E-01   0.00000000000000E+00   0.00000000000000E+00
      0.00000000000000E+00   0.00000000000000E+00   0.00000000000000E+00  -3.04513383888921E-16
      1.59476145561600E-02
      0.00000000000000E+00   0.00000000000000E+00   0.00000000000000E+00   0.00000000000000E+00  -1.00641185217612E-15
     -1.30841707547792E-18  -1.00772026925160E-15   6.18483893744049E-16   1.00000000000000E+00   1.00000000000000E+00
      0.00000000000000E+00   0.00000000000000E+00   1.00658524682160E-15   8.51748441300619E-20   1.00667042166573E-15
      9.90245269187716E-16  -4.68104770887680E-01  -4.68104770887680E-01   0.00000000000000E+00   0.00000000000000E+00
      0.00000000000000E+00   0.00000000000000E+00   0.00000000000000E+00  -2.96834381439265E-16
      1.99681150510876E-02
      0.00000000000000E+00   0.00000000000000E+00   0.00000000000000E+00   0.00000000000000E+00  -1.00370464807446E-15
     -1.30213703023510E-18  -1.00500678510469E-15   6.18474284067698E-16   1.00000000000000E+00   1.00000000000000E+00
      0.00000000000000E+00   0.00000000000000E+00   1.00475704853337E-15   8.51749827778107E-20   1.00484222351615E-15
      9.90117153883729E-16  -4.60063769897825E-01  -4.60063769897825E-01   0.00000000000000E+00   0.00000000000000E+00
      0.00000000000000E+00   0.00000000000000E+00   0.00000000000000E+00  -2.87734090752380E-16
      2.47391089717351E-02
      0.00000000000000E+00   0.00000000000000E+00   0.00000000000000E+00   0.00000000000000E+00  -1.00075286904133E-15
     -1.29501450544715E-18  -1.00204788354678E-15   6.18458908043316E-16   1.00000000000000E+00   1.00000000000000E+00
      0.00000000000000E+00   0.00000000000000E+00   1.00190840962414E-15   8.51751375633819E-20   1.00199358476170E-15
      9.89963342925275E-16  -4.50521782056530E-01  -4.50521782056530E-01   0.00000000000000E+00   0.00000000000000E+00
      0.00000000000000E+00   0.00000000000000E+00   0.00000000000000E+00  -2.76952532734136E-16
      3.04006884242368E-02
      0.00000000000000E+00   0.00000000000000E+00   0.00000000000000E+00   0.00000000000000E+00  -9.97015676463022E-16
     -1.28701967403529E-18  -9.98302696137058E-16   6.18435005118253E-16   1.00000000000000E+00   1.00000000000000E+00
      0.00000000000000E+00   0.00000000000000E+00   9.98267606897956E-16   8.51753075283974E-20   9.98352782205485E-16
      9.89778290936155E-16  -4.39198623151526E-01  -4.39198623151526E-01   0.00000000000000E+00   0.00000000000000E+00
      0.00000000000000E+00   0.00000000000000E+00   0.00000000000000E+00  -2.64183597664422E-16
      3.71190960412054E-02
      0.00000000000000E+00   0.00000000000000E+00   0.00000000000000E+00   0.00000000000000E+00  -9.93351395639918E-16
     -1.27815984126169E-18  -9.94629555481180E-16   6.18398610034829E-16   1.00000000000000E+00   1.00000000000000E+00
      0.00000000000000E+00   0.00000000000000E+00   9.95286504461935E-16   8.51754900854015E-20   9.95371679952020E-16
      9.89555116260911E-16  -4.25761807917589E-01  -4.25761807917589E-01   0.00000000000000E+00   0.00000000000000E+00
      0.00000000000000E+00   0.00000000000000E+00   0.00000000000000E+00  -2.49067556904678E-16
      4.50916064133415E-02
      0.00000000000000E+00   0.00000000000000E+00   0.00000000000000E+00   0.00000000000000E+00  -9.90180560933871E-16
     -1.26849535119254E-18  -9.91449056285063E-16   6.18344064955189E-16   1.00000000000000E+00   1.00000000000000E+00