DF-ISE text

Info {
  version   = 1.0
  type      = xyplot
  datasets  = [
    "time"
    "S OuterVoltage" "S InnerVoltage" "S QuasiFermiPotential" "S DisplacementCurrent" "S eCurrent"
    "S hCurrent" "S TotalCurrent" "S Charge" "D OuterVoltage" "D InnerVoltage"
    "D QuasiFermiPotential" "D DisplacementCurrent" "D eCurrent" "D hCurrent" "D TotalCurrent"
    "D Charge" "G OuterVoltage" "G InnerVoltage" "G QuasiFermiPotential" "G DisplacementCurrent"
    "G eCurrent" "G hCurrent" "G TotalCurrent" "G Charge" ]
  functions = [
    Time
    OuterVoltage InnerVoltage QuasiFermiPotential DisplacementCurrent eCurrent
    hCurrent TotalCurrent Charge OuterVoltage InnerVoltage
    QuasiFermiPotential DisplacementCurrent eCurrent hCurrent TotalCurrent
    Charge OuterVoltage InnerVoltage QuasiFermiPotential DisplacementCurrent
    eCurrent hCurrent TotalCurrent Charge ]
}

Data {
      0.00000000000000E+00
      0.00000000000000E+00   0.00000000000000E+00   0.00000000000000E+00   0.00000000000000E+00   4.11343350412200E-20
     -1.72245408064949E-33   4.11343350412183E-20   6.18998760301620E-16   0.00000000000000E+00   0.00000000000000E+00
      0.00000000000000E+00   0.00000000000000E+00   9.06353642039713E-27  -1.72843967460807E-33   9.06353469195746E-27
      6.72342355437178E-16  -5.00000000000000E-01  -5.00000000000000E-01   0.00000000000000E+00   0.00000000000000E+00
      0.00000000000000E+00   0.00000000000000E+00   0.00000000000000E+00  -2.73236005438332E-16
      0.00000000000000E+00
      0.00000000000000E+00   0.00000000000000E+00   0.00000000000000E+00   0.00000000000000E+00  -4.11343328001622E-19
     -4.16092326026924E-30  -4.11343328005783E-19   6.18998757519804E-16   0.00000000000000E+00   0.00000000000000E+00
      0.00000000000000E+00   0.00000000000000E+00  -3.30098448116934E-19  -4.16606548153998E-30  -3.30098448121101E-19
      6.72342355189076E-16  -5.00000000000000E-01  -5.00000000000000E-01   0.00000000000000E+00   0.00000000000000E+00
      0.00000000000000E+00   0.00000000000000E+00   0.00000000000000E+00  -2.73236006213341E-16
      1.00000000000000E-03
      0.00000000000000E+00   0.00000000000000E+00   0.00000000000000E+00   0.00000000000000E+00  -4.99382958309761E-18
     -2.37154603348165E-21  -4.99620112913109E-18   6.18730308585684E-16   1.00000000000000E-03   1.00000000000000E-03
      0.00000000000000E+00   0.00000000000000E+00   5.42530134261248E-18   8.24238248412331E-22   5.42612558086089E-18
      6.72478325580150E-16  -5.00000000000000E-01  -5.00000000000000E-01   0.00000000000000E+00   0.00000000000000E+00
      0.00000000000000E+00   0.00000000000000E+00   0.00000000000000E+00  -2.73953741549596E-16
      2.17333333333333E-03
      0.00000000000000E+00   0.00000000000000E+00   0.00000000000000E+00   0.00000000000000E+00  -1.12527490741766E-17
     -5.22495059623904E-21  -1.12579740247729E-17   6.18417021171549E-16   2.17333333333333E-03   2.17333333333333E-03
      0.00000000000000E+00   0.00000000000000E+00   1.13093886487518E-17   1.79615569327953E-21   1.13111848044451E-17
      6.72639628982481E-16  -5.00000000000000E-01  -5.00000000000000E-01   0.00000000000000E+00   0.00000000000000E+00
      0.00000000000000E+00   0.00000000000000E+00   0.00000000000000E+00  -2.74791870142047E-16
      3.56568888888889E-03
      0.00000000000000E+00   0.00000000000000E+00   0.00000000000000E+00   0.00000000000000E+00  -1.90813161348621E-17
     -8.71158958978084E-21  -1.90900277244518E-17   6.18047668266845E-16   3.56568888888889E-03   3.56568888888889E-03
      0.00000000000000E+00   0.00000000000000E+00   1.87725008818463E-17   2.95598068735927E-21   1.87754568625336E-17
      6.72833556759932E-16  -5.00000000000000E-01  -5.00000000000000E-01   0.00000000000000E+00   0.00000000000000E+00
      0.00000000000000E+00   0.00000000000000E+00   0.00000000000000E+00  -2.75780704408080E-16
      5.21795081481481E-03
      0.00000000000000E+00   0.00000000000000E+00   0.00000000000000E+00   0.00000000000000E+00  -2.75868679855830E-17
     -1.29930091832762E-20  -2.75998609947662E-17   6.17612842215835E-16   5.21795081481481E-03   5.21795081481481E-03
      0.00000000000000E+00   0.00000000000000E+00   2.77775779302219E-17   4.34097823110393E-21   2.77819189084530E-17
      6.73067294757578E-16  -5.00000000000000E-01  -5.00000000000000E-01   0.00000000000000E+00   0.00000000000000E+00
      0.00000000000000E+00   0.00000000000000E+00   0.00000000000000E+00  -2.76945829690213E-16
      7.17863496691358E-03
      0.00000000000000E+00   0.00000000000000E+00   0.00000000000000E+00   0.00000000000000E+00  -3.87532297812569E-17
     -1.82799168732431E-20  -3.87715096981302E-17   6.17101858563587E-16   7.17863496691358E-03   7.17863496691358E-03
      0.00000000000000E+00   0.00000000000000E+00   3.87514935210489E-17   5.99589822266552E-21   3.87574894192716E-17
      6.73349863042901E-16  -5.00000000000000E-01  -5.00000000000000E-01   0.00000000000000E+00   0.00000000000000E+00
      0.00000000000000E+00   0.00000000000000E+00   0.00000000000000E+00  -2.78316435443454E-16
      9.50531349407078E-03
      0.00000000000000E+00   0.00000000000000E+00   0.00000000000000E+00   0.00000000000000E+00  -5.21345099068643E-17
     -2.48497372066060E-20  -5.21593596440709E-17   6.16502744140798E-16   9.50531349407078E-03   9.50531349407078E-03
      0.00000000000000E+00   0.00000000000000E+00   5.16804418855064E-17   7.97429098451161E-21   5.16884161764909E-17
      6.73692688708595E-16  -5.00000000000000E-01  -5.00000000000000E-01   0.00000000000000E+00   0.00000000000000E+00
      0.00000000000000E+00   0.00000000000000E+00   0.00000000000000E+00  -2.79925423824450E-16
      1.22663053462973E-02
      0.00000000000000E+00   0.00000000000000E+00   0.00000000000000E+00   0.00000000000000E+00  -6.71696254276065E-17
     -3.30709654473899E-20  -6.72026963930539E-17   6.15802333932572E-16   1.22663053462973E-02   1.22663053462973E-02
      0.00000000000000E+00   0.00000000000000E+00   6.75141118331455E-17   1.03397838281760E-20   6.75244516169737E-17
      6.74110396986510E-16  -5.00000000000000E-01  -5.00000000000000E-01   0.00000000000000E+00   0.00000000000000E+00
      0.00000000000000E+00   0.00000000000000E+00   0.00000000000000E+00  -2.81809256199573E-16
      1.55426823442728E-02
      0.00000000000000E+00   0.00000000000000E+00   0.00000000000000E+00   0.00000000000000E+00  -8.62131674391471E-17
     -4.34366854738082E-20  -8.62566041246209E-17   6.14986553144811E-16   1.55426823442728E-02   1.55426823442728E-02
      0.00000000000000E+00   0.00000000000000E+00   8.66438758759423E-17   1.31669935718997E-20   8.66570428695142E-17
      6.74621916653792E-16  -5.00000000000000E-01  -5.00000000000000E-01   0.00000000000000E+00   0.00000000000000E+00
      0.00000000000000E+00   0.00000000000000E+00   0.00000000000000E+00  -2.84007343109645E-16
      1.94306497152037E-02
      0.00000000000000E+00   0.00000000000000E+00   0.00000000000000E+00   0.00000000000000E+00  -1.09801053064457E-16
     -5.66097942247841E-20  -1.09857662858682E-16   6.14041000592086E-16   1.94306497152037E-02   1.94306497152037E-02
      0.00000000000000E+00   0.00000000000000E+00   1.10182698125310E-16   1.65413919473100E-20   1.10199239517258E-16
      6.75252037868118E-16  -5.00000000000000E-01  -5.00000000000000E-01   0.00000000000000E+00   0.00000000000000E+00
      0.00000000000000E+00   0.00000000000000E+00   0.00000000000000E+00  -2.86560679584923E-16
      2.40443709953751E-02
      0.00000000000000E+00   0.00000000000000E+00   0.00000000000000E+00   0.00000000000000E+00  -1.38393752286716E-16
     -7.34814615545120E-20  -1.38467233748270E-16   6.12952007264256E-16   2.40443709953751E-02   2.40443709953751E-02
      0.00000000000000E+00   0.00000000000000E+00   1.36758552645259E-16   2.05568174544415E-20   1.36779109462714E-16
      6.76033620058789E-16  -5.00000000000000E-01  -5.00000000000000E-01   0.00000000000000E+00   0.00000000000000E+00
      0.00000000000000E+00   0.00000000000000E+00   0.00000000000000E+00  -2.89509276279160E-16
      2.95193202478451E-02
      0.00000000000000E+00   0.00000000000000E+00   0.00000000000000E+00   0.00000000000000E+00  -1.71914722645819E-16
     -9.52401903975193E-20  -1.72009962836216E-16   6.11708411915311E-16   2.95193202478451E-02   2.95193202478451E-02
      0.00000000000000E+00   0.00000000000000E+00   1.70944969894163E-16   2.53082523832532E-20   1.70970278146547E-16
      6.77010715591804E-16  -5.00000000000000E-01  -5.00000000000000E-01   0.00000000000000E+00   0.00000000000000E+00
      0.00000000000000E+00   0.00000000000000E+00   0.00000000000000E+00  -2.92887756818075E-16
      3.60162600274429E-02
      0.00000000000000E+00   0.00000000000000E+00   0.00000000000000E+00   0.00000000000000E+00  -2.17318067436197E-16
     -1.23436818810957E-19  -2.17441504255008E-16   6.10304375956409E-16   3.60162600274429E-02   3.60162600274429E-02
      0.00000000000000E+00   0.00000000000000E+00   2.08287675084597E-16   3.08760241913220E-20   2.08318551108788E-16
      6.78242952277780E-16  -5.00000000000000E-01  -5.00000000000000E-01   0.00000000000000E+00   0.00000000000000E+00
      0.00000000000000E+00   0.00000000000000E+00   0.00000000000000E+00  -2.96718277773661E-16
      4.37259618992322E-02
      0.00000000000000E+00   0.00000000000000E+00   0.00000000000000E+00   0.00000000000000E+00  -2.62009236885703E-16
     -1.60003395259918E-19  -2.62169240280963E-16   6.08743558772621E-16   4.37259618992322E-02   4.37259618992322E-02
      0.00000000000000E+00   0.00000000000000E+00   2.60939149825607E-16   3.72958928820072E-20   2.60976445718489E-16
      6.79811508908122E-16  -5.00000000000000E-01  -5.00000000000000E-01   0.00000000000000E+00   0.00000000000000E+00
      0.00000000000000E+00   0.00000000000000E+00   0.00000000000000E+00  -3.00999921549511E-16
      5.28748081204222E-02
      0.00000000000000E+00   0.00000000000000E+00   0.00000000000000E+00   0.00000000000000E+00  -3.55402777127002E-16
     -2.07130303511789E-19  -3.55609907430514E-16   6.07044787064452E-16   5.28748081204222E-02   5.28748081204222E-02
      0.00000000000000E+00   0.00000000000000E+00   2.83754333460717E-16   4.45096826412444E-20   2.83798843143358E-16
      6.81826818402260E-16  -5.00000000000000E-01  -5.00000000000000E-01   0.00000000000000E+00   0.00000000000000E+00
      0.00000000000000E+00   0.00000000000000E+00   0.00000000000000E+00  -3.05694189808491E-16
      6.37314389695677E-02
      0.00000000000000E+00   0.00000000000000E+00   0.00000000000000E+00   0.00000000000000E+00  -3.84939569380635E-16
     -2.66829962150709E-19  -3.85206399342785E-16   6.05248631003913E-16   6.37314389695677E-02   6.37314389695677E-02
      0.00000000000000E+00   0.00000000000000E+00   3.85812875155105E-16   5.22978325119068E-20   3.85865172987617E-16
      6.84437403873589E-16  -5.00000000000000E-01  -5.00000000000000E-01   0.00000000000000E+00   0.00000000000000E+00
      0.00000000000000E+00   0.00000000000000E+00   0.00000000000000E+00  -3.10708087499204E-16
      7.64698858325651E-02
      0.00000000000000E+00   0.00000000000000E+00   0.00000000000000E+00   0.00000000000000E+00  -4.57957347859957E-16
     -3.39165539401890E-19  -4.58296513399359E-16   6.03441252670608E-16   7.64698858325651E-02   7.64698858325651E-02
      0.00000000000000E+00   0.00000000000000E+00   4.57846982001827E-16   6.01362239398532E-20   4.57907118225767E-16
      6.87797533160461E-16  -5.00000000000000E-01  -5.00000000000000E-01   0.00000000000000E+00   0.00000000000000E+00
      0.00000000000000E+00   0.00000000000000E+00   0.00000000000000E+00  -3.15827336539293E-16
      9.14163301518153E-02
      0.00000000000000E+00   0.00000000000000E+00   0.00000000000000E+00   0.00000000000000E+00  -5.33370192800375E-16
     -4.22331531440630E-19  -5.33792524331815E-16   6.01708836503470E-16   9.14163301518153E-02   9.14163301518153E-02
      0.00000000000000E+00   0.00000000000000E+00   5.33497622942794E-16   6.73997627184763E-20   5.33565022705512E-16
      6.92121064285327E-16  -5.00000000000000E-01  -5.00000000000000E-01   0.00000000000000E+00   0.00000000000000E+00
      0.00000000000000E+00   0.00000000000000E+00   0.00000000000000E+00  -3.20842203714520E-16
      1.08953491486402E-01
      0.00000000000000E+00   0.00000000000000E+00   0.00000000000000E+00   0.00000000000000E+00  -6.06300054810068E-16
     -5.11353276662616E-19  -6.06811408086731E-16   6.00142690598233E-16   1.08953491486402E-01   1.08953491486402E-01
      0.00000000000000E+00   0.00000000000000E+00   6.06399843728538E-16   7.34252327868369E-20   6.06473268961325E-16
      6.97646942629287E-16  -5.00000000000000E-01  -5.00000000000000E-01   0.00000000000000E+00   0.00000000000000E+00
      0.00000000000000E+00   0.00000000000000E+00   0.00000000000000E+00  -3.25530869040580E-16
      1.29530427452318E-01
      0.00000000000000E+00   0.00000000000000E+00   0.00000000000000E+00   0.00000000000000E+00  -6.72652126629544E-16
     -5.99038103734811E-19  -6.73251164733279E-16   5.98812195749350E-16   1.29530427452318E-01   1.29530427452318E-01
      0.00000000000000E+00   0.00000000000000E+00   6.73311329489977E-16   7.77775329311501E-20   6.73389107022908E-16
      7.04615455999814E-16  -5.00000000000000E-01  -5.00000000000000E-01   0.00000000000000E+00   0.00000000000000E+00
      0.00000000000000E+00   0.00000000000000E+00   0.00000000000000E+00  -3.29729353219442E-16
      1.53674032318992E-01
      0.00000000000000E+00   0.00000000000000E+00   0.00000000000000E+00   0.00000000000000E+00  -7.29049476143507E-16
     -6.78854816103985E-19  -7.29728330959611E-16   5.97740627208856E-16   1.53674032318992E-01   1.53674032318992E-01
      0.00000000000000E+00   0.00000000000000E+00   7.29293619139227E-16   8.04626935649009E-20   7.29374081832792E-16
      7.13247752603180E-16  -5.00000000000000E-01  -5.00000000000000E-01   0.00000000000000E+00   0.00000000000000E+00
      0.00000000000000E+00   0.00000000000000E+00   0.00000000000000E+00  -3.33394059901380E-16
      1.82002528695889E-01
      0.00000000000000E+00   0.00000000000000E+00   0.00000000000000E+00   0.00000000000000E+00  -7.74916668634737E-16
     -7.47500001954756E-19  -7.75664168636692E-16   5.96904308827462E-16   1.82002528695889E-01   1.82002528695889E-01
      0.00000000000000E+00   0.00000000000000E+00   7.75522088533733E-16   8.18812699417471E-20   7.75603969803675E-16
      7.23747907288280E-16  -5.00000000000000E-01  -5.00000000000000E-01   0.00000000000000E+00   0.00000000000000E+00
      0.00000000000000E+00   0.00000000000000E+00   0.00000000000000E+00  -3.36603830020463E-16
      2.15241297778115E-01
      0.00000000000000E+00   0.00000000000000E+00   0.00000000000000E+00   0.00000000000000E+00  -8.12028210156480E-16
     -8.05288926271196E-19  -8.12833499082751E-16   5.96251586266186E-16   2.15241297778115E-01   2.15241297778115E-01
      0.00000000000000E+00   0.00000000000000E+00   8.12082502790013E-16   8.25598341702356E-20   8.12165062624184E-16
      7.36322496053874E-16  -5.00000000000000E-01  -5.00000000000000E-01   0.00000000000000E+00   0.00000000000000E+00
      0.00000000000000E+00   0.00000000000000E+00   0.00000000000000E+00  -3.39509920815693E-16
      2.54241453501261E-01
      0.00000000000000E+00   0.00000000000000E+00   0.00000000000000E+00   0.00000000000000E+00  -8.42687080575619E-16
     -8.55429153174142E-19  -8.43542509728793E-16   5.95718373033187E-16   2.54241453501261E-01   2.54241453501261E-01
      0.00000000000000E+00   0.00000000000000E+00   8.43275979247439E-16   8.29104012468964E-20   8.43358889648686E-16
      7.51192360116388E-16  -5.00000000000000E-01  -5.00000000000000E-01   0.00000000000000E+00   0.00000000000000E+00
      0.00000000000000E+00   0.00000000000000E+00   0.00000000000000E+00  -3.42292753550696E-16
      3.00001636216419E-01
      0.00000000000000E+00   0.00000000000000E+00   0.00000000000000E+00   0.00000000000000E+00  -8.70027836994918E-16
     -9.02422880917979E-19  -8.70930259875836E-16   5.95243562711199E-16   3.00001636216419E-01   3.00001636216419E-01
      0.00000000000000E+00   0.00000000000000E+00   8.71255557240266E-16   8.31602998320455E-20   8.71338717540098E-16
      7.68594418798333E-16  -5.00000000000000E-01  -5.00000000000000E-01   0.00000000000000E+00   0.00000000000000E+00
      0.00000000000000E+00   0.00000000000000E+00   0.00000000000000E+00  -3.45115148874753E-16
      3.53083448166001E-01
      0.00000000000000E+00   0.00000000000000E+00   0.00000000000000E+00   0.00000000000000E+00  -8.95933540339929E-16
     -9.46974880652508E-19  -8.96880515220581E-16   5.94813624762614E-16   3.53083448166001E-01   3.53083448166001E-01
      0.00000000000000E+00   0.00000000000000E+00   8.96891073967749E-16   8.33993316739207E-20   8.96974473299423E-16
      7.88560872641569E-16  -5.00000000000000E-01  -5.00000000000000E-01   0.00000000000000E+00   0.00000000000000E+00
      0.00000000000000E+00   0.00000000000000E+00   0.00000000000000E+00  -3.47974489899246E-16
      4.14658350027517E-01
      0.00000000000000E+00   0.00000000000000E+00   0.00000000000000E+00   0.00000000000000E+00  -9.17339246075492E-16
     -9.84660849116145E-19  -9.18323906924608E-16   5.94464031735893E-16   4.14658350027517E-01   4.14658350027517E-01
      0.00000000000000E+00   0.00000000000000E+00   9.18284932089652E-16   8.36554127031621E-20   9.18368587502355E-16
      8.11289797332776E-16  -5.00000000000000E-01  -5.00000000000000E-01   0.00000000000000E+00   0.00000000000000E+00
      0.00000000000000E+00   0.00000000000000E+00   0.00000000000000E+00  -3.50721923235065E-16
      4.86906234878363E-01
      0.00000000000000E+00   0.00000000000000E+00   0.00000000000000E+00   0.00000000000000E+00  -9.33778364797339E-16
     -1.01357623183547E-18  -9.34791941029174E-16   5.94203942070564E-16   4.86906234878363E-01   4.86906234878363E-01
      0.00000000000000E+00   0.00000000000000E+00   9.33903837281934E-16   8.39372987806600E-20   9.33987774580714E-16
      8.37278676794153E-16  -5.00000000000000E-01  -5.00000000000000E-01   0.00000000000000E+00   0.00000000000000E+00
      0.00000000000000E+00   0.00000000000000E+00   0.00000000000000E+00  -3.53289759521166E-16
      5.70713781305344E-01
      0.00000000000000E+00   0.00000000000000E+00   0.00000000000000E+00   0.00000000000000E+00  -9.45548188269486E-16
     -1.03559195277206E-18  -9.46583780222257E-16   5.94010390318629E-16   5.70713781305344E-01   5.70713781305344E-01
      0.00000000000000E+00   0.00000000000000E+00   9.47230047116981E-16   8.42417064867518E-20   9.47314288823468E-16
      8.66771817495766E-16  -5.00000000000000E-01  -5.00000000000000E-01   0.00000000000000E+00   0.00000000000000E+00
      0.00000000000000E+00   0.00000000000000E+00   0.00000000000000E+00  -3.55757820483166E-16
      6.66813101208281E-01
      0.00000000000000E+00   0.00000000000000E+00   0.00000000000000E+00   0.00000000000000E+00  -9.55373149030522E-16
     -1.05329281962657E-18  -9.56426441850148E-16   5.93857452881735E-16   6.66813101208281E-01   6.66813101208281E-01
      0.00000000000000E+00   0.00000000000000E+00   9.56125033067742E-16   8.45634019786543E-20   9.56209596469721E-16
      9.00205071541871E-16  -5.00000000000000E-01  -5.00000000000000E-01   0.00000000000000E+00   0.00000000000000E+00
      0.00000000000000E+00   0.00000000000000E+00   0.00000000000000E+00  -3.58315605332529E-16
      7.71881690968827E-01
      0.00000000000000E+00   0.00000000000000E+00   0.00000000000000E+00   0.00000000000000E+00  -9.62130041412730E-16
     -1.06693138178712E-18  -9.63196972794517E-16   5.93741175728985E-16   7.71881690968827E-01   7.71881690968827E-01
      0.00000000000000E+00   0.00000000000000E+00   9.63610375004433E-16   8.48842261656132E-20   9.63695259230598E-16
      9.36512212157071E-16  -5.00000000000000E-01  -5.00000000000000E-01   0.00000000000000E+00   0.00000000000000E+00
      0.00000000000000E+00   0.00000000000000E+00   0.00000000000000E+00  -3.60977897560285E-16
      8.93761255091060E-01
      0.00000000000000E+00   0.00000000000000E+00   0.00000000000000E+00   0.00000000000000E+00  -9.69283425596512E-16
     -1.07835908541506E-18  -9.70361784681927E-16   5.93644748563520E-16   8.93761255091060E-01   8.93761255091060E-01
      0.00000000000000E+00   0.00000000000000E+00   9.69575599246739E-16   8.52197148298382E-20   9.69660818961569E-16
      9.78283310876913E-16  -5.00000000000000E-01  -5.00000000000000E-01   0.00000000000000E+00   0.00000000000000E+00
      0.00000000000000E+00   0.00000000000000E+00   0.00000000000000E+00  -3.63999553156701E-16
      1.00000000000000E+00
      0.00000000000000E+00   0.00000000000000E+00   0.00000000000000E+00   0.00000000000000E+00  -9.81978743585911E-16
     -1.10408829576463E-18  -9.83082831881676E-16   5.93431184881114E-16   1.00000000000000E+00   1.00000000000000E+00
      0.00000000000000E+00   0.00000000000000E+00   9.83492032075552E-16   8.54819513238591E-20   9.83577514026876E-16
      1.01413448062105E-15  -5.00000000000000E-01  -5.00000000000000E-01   0.00000000000000E+00   0.00000000000000E+00
      0.00000000000000E+00   0.00000000000000E+00   0.00000000000000E+00  -3.66993731952503E-16
      0.00000000000000E+00
      0.00000000000000E+00   0.00000000000000E+00   0.00000000000000E+00   0.00000000000000E+00  -9.82577140312025E-16
     -1.10408867559958E-18  -9.83681228987625E-16   5.93431181763886E-16   1.00000000000000E+00   1.00000000000000E+00
      0.00000000000000E+00   0.00000000000000E+00   9.83519692731999E-16   8.54819513043087E-20   9.83605174683303E-16
      1.01413447802056E-15  -5.00000000000000E-01  -5.00000000000000E-01   0.00000000000000E+00   0.00000000000000E+00
      0.00000000000000E+00   0.00000000000000E+00   0.00000000000000E+00  -3.66993739829220E-16
      1.00000000000000E-03
      0.00000000000000E+00   0.00000000000000E+00   0.00000000000000E+00   0.00000000000000E+00  -9.81649478702757E-16
     -1.10358347993779E-18  -9.82753062182695E-16   5.93381745929526E-16   1.00000000000000E+00   1.00000000000000E+00
      0.00000000000000E+00   0.00000000000000E+00   9.83076483515165E-16   8.54819705722122E-20   9.83161965485737E-16
      1.01409138661470E-15  -4.98000000000000E-01  -4.98000000000000E-01   0.00000000000000E+00   0.00000000000000E+00
      0.00000000000000E+00   0.00000000000000E+00   0.00000000000000E+00  -3.64986630458467E-16
      2.17333333333333E-03
      0.00000000000000E+00   0.00000000000000E+00   0.00000000000000E+00   0.00000000000000E+00  -9.82149565997347E-16
     -1.10299784054364E-18  -9.83252563837891E-16   5.93323338183363E-16   1.00000000000000E+00   1.00000000000000E+00
      0.00000000000000E+00   0.00000000000000E+00   9.82937344216320E-16   8.54819927973138E-20   9.83022826209118E-16
      1.01404060867147E-15  -4.95653333333333E-01  -4.95653333333333E-01   0.00000000000000E+00   0.00000000000000E+00
      0.00000000000000E+00   0.00000000000000E+00   0.00000000000000E+00  -3.62635414962864E-16
      3.56568888888889E-03
      0.00000000000000E+00   0.00000000000000E+00   0.00000000000000E+00   0.00000000000000E+00  -9.81806304706648E-16
     -1.10231280405252E-18  -9.82908617510701E-16   5.93253465080237E-16   1.00000000000000E+00   1.00000000000000E+00
      0.00000000000000E+00   0.00000000000000E+00   9.82410973223744E-16   8.54820186368118E-20   9.82496455242381E-16
      1.01398004484051E-15  -4.92868622222222E-01  -4.92868622222222E-01   0.00000000000000E+00   0.00000000000000E+00
      0.00000000000000E+00   0.00000000000000E+00   0.00000000000000E+00  -3.59850671776539E-16
      5.21795081481481E-03
      0.00000000000000E+00   0.00000000000000E+00   0.00000000000000E+00   0.00000000000000E+00  -9.81726156525285E-16
     -1.10151362247900E-18  -9.82827670147764E-16   5.93169761545922E-16   1.00000000000000E+00   1.00000000000000E+00
      0.00000000000000E+00   0.00000000000000E+00   9.82548142591876E-16   8.54820485577743E-20   9.82633624640434E-16
      1.01390773930966E-15  -4.89564098370370E-01  -4.89564098370370E-01   0.00000000000000E+00   0.00000000000000E+00
      0.00000000000000E+00   0.00000000000000E+00   0.00000000000000E+00  -3.56553750402206E-16
      7.17863496691358E-03
      0.00000000000000E+00   0.00000000000000E+00   0.00000000000000E+00   0.00000000000000E+00  -9.80493632843794E-16
     -1.10058418010560E-18  -9.81594217023900E-16   5.93069332747410E-16   1.00000000000000E+00   1.00000000000000E+00
      0.00000000000000E+00   0.00000000000000E+00   9.81966268425806E-16   8.54820830370710E-20   9.82051750508842E-16
      1.01382131616520E-15  -4.85642730066173E-01  -4.85642730066173E-01   0.00000000000000E+00   0.00000000000000E+00
      0.00000000000000E+00   0.00000000000000E+00   0.00000000000000E+00  -3.52652303953923E-16
      9.50531349407078E-03
      0.00000000000000E+00   0.00000000000000E+00   0.00000000000000E+00   0.00000000000000E+00  -9.80539144227409E-16
     -1.09950722508656E-18  -9.81638651452495E-16   5.92948621467483E-16   1.00000000000000E+00   1.00000000000000E+00
      0.00000000000000E+00   0.00000000000000E+00   9.81273713546096E-16   8.54821225348762E-20   9.81359195668631E-16
      1.01371787689008E-15  -4.80989373011858E-01  -4.80989373011858E-01   0.00000000000000E+00   0.00000000000000E+00
      0.00000000000000E+00   0.00000000000000E+00   0.00000000000000E+00  -3.48038172832068E-16
      1.22663053462973E-02
      0.00000000000000E+00   0.00000000000000E+00   0.00000000000000E+00   0.00000000000000E+00  -9.79890924417825E-16
     -1.09826476131972E-18  -9.80989189179145E-16   5.92803238875739E-16   1.00000000000000E+00   1.00000000000000E+00
      0.00000000000000E+00   0.00000000000000E+00   9.81438369702932E-16   8.54821674554464E-20   9.81523851870388E-16
      1.01359386824794E-15  -4.75467389307405E-01  -4.75467389307405E-01   0.00000000000000E+00   0.00000000000000E+00
      0.00000000000000E+00   0.00000000000000E+00   0.00000000000000E+00  -3.42585077151294E-16
      1.55426823442728E-02
      0.00000000000000E+00   0.00000000000000E+00   0.00000000000000E+00   0.00000000000000E+00  -9.79269514363787E-16
     -1.09683868295464E-18  -9.80366353046741E-16   5.92627747864753E-16   1.00000000000000E+00   1.00000000000000E+00
      0.00000000000000E+00   0.00000000000000E+00   9.80635237433981E-16   8.54822180892022E-20   9.80720719652070E-16
      1.01344491026069E-15  -4.68914635311454E-01  -4.68914635311454E-01   0.00000000000000E+00   0.00000000000000E+00
      0.00000000000000E+00   0.00000000000000E+00   0.00000000000000E+00  -3.36146180881187E-16
      1.94306497152037E-02
      0.00000000000000E+00   0.00000000000000E+00   0.00000000000000E+00   0.00000000000000E+00  -9.79181768733732E-16
     -1.09521120802064E-18  -9.80276979941753E-16   5.92415389553803E-16   1.00000000000000E+00   1.00000000000000E+00
      0.00000000000000E+00   0.00000000000000E+00   9.80025847755415E-16   8.54822745567154E-20   9.80111330029972E-16
      1.01326557420260E-15  -4.61138700569592E-01  -4.61138700569592E-01   0.00000000000000E+00   0.00000000000000E+00
      0.00000000000000E+00   0.00000000000000E+00   0.00000000000000E+00  -3.28551638470211E-16
      2.40443709953751E-02
      0.00000000000000E+00   0.00000000000000E+00   0.00000000000000E+00   0.00000000000000E+00  -9.78639827238389E-16
     -1.09336814376161E-18  -9.79733195382151E-16   5.92157711197106E-16   1.00000000000000E+00   1.00000000000000E+00
      0.00000000000000E+00   0.00000000000000E+00   9.79112620915428E-16   8.54823365942243E-20   9.79198103252023E-16
      1.01304907288727E-15  -4.51911258009250E-01  -4.51911258009250E-01   0.00000000000000E+00   0.00000000000000E+00
      0.00000000000000E+00   0.00000000000000E+00   0.00000000000000E+00  -3.19606393552585E-16
      2.95193202478451E-02
      0.00000000000000E+00   0.00000000000000E+00   0.00000000000000E+00   0.00000000000000E+00  -9.77852974545207E-16
     -1.09129844246502E-18  -9.78944272987672E-16   5.91844126644052E-16   1.00000000000000E+00   1.00000000000000E+00
      0.00000000000000E+00   0.00000000000000E+00   9.78836079197348E-16   8.54824035155858E-20   9.78921561600864E-16
      1.01278688857678E-15  -4.40961359504310E-01  -4.40961359504310E-01   0.00000000000000E+00   0.00000000000000E+00
      0.00000000000000E+00   0.00000000000000E+00   0.00000000000000E+00  -3.09088433205595E-16
      3.60162600274429E-02
      0.00000000000000E+00   0.00000000000000E+00   0.00000000000000E+00   0.00000000000000E+00  -9.77417209340938E-16
     -1.08899821057338E-18  -9.78506207551511E-16   5.91461309745994E-16   1.00000000000000E+00   1.00000000000000E+00
      0.00000000000000E+00   0.00000000000000E+00   9.78339336557027E-16   8.54824739239557E-20   9.78424819030951E-16
      1.01246826556210E-15  -4.27967479945114E-01  -4.27967479945114E-01   0.00000000000000E+00   0.00000000000000E+00
      0.00000000000000E+00   0.00000000000000E+00   0.00000000000000E+00  -2.96748172877804E-16
      4.37259618992322E-02
      0.00000000000000E+00   0.00000000000000E+00   0.00000000000000E+00   0.00000000000000E+00  -9.78360682766966E-16
     -1.08647493145981E-18  -9.79447157698425E-16   5.90992401917737E-16   1.00000000000000E+00   1.00000000000000E+00
      0.00000000000000E+00   0.00000000000000E+00   9.76571945951959E-16   8.54825453905270E-20   9.76657428497349E-16
      1.01207959580629E-15  -4.12548076201536E-01  -4.12548076201536E-01   0.00000000000000E+00   0.00000000000000E+00
      0.00000000000000E+00   0.00000000000000E+00   0.00000000000000E+00  -2.82309642143472E-16
      5.28748081204222E-02
      0.00000000000000E+00   0.00000000000000E+00   0.00000000000000E+00   0.00000000000000E+00  -9.76583799809908E-16
     -1.08375700255832E-18  -9.77667556812467E-16   5.90415890446433E-16   1.00000000000000E+00   1.00000000000000E+00