DF-ISE text

Info {
  version   = 1.0
  type      = xyplot
  datasets  = [
    "time"
    "S OuterVoltage" "S InnerVoltage" "S QuasiFermiPotential" "S DisplacementCurrent" "S eCurrent"
    "S hCurrent" "S TotalCurrent" "S Charge" "D OuterVoltage" "D InnerVoltage"
    "D QuasiFermiPotential" "D DisplacementCurrent" "D eCurrent" "D hCurrent" "D TotalCurrent"
    "D Charge" "G OuterVoltage" "G InnerVoltage" "G QuasiFermiPotential" "G DisplacementCurrent"
    "G eCurrent" "G hCurrent" "G TotalCurrent" "G Charge" ]
  functions = [
    Time
    OuterVoltage InnerVoltage QuasiFermiPotential DisplacementCurrent eCurrent
    hCurrent TotalCurrent Charge OuterVoltage InnerVoltage
    QuasiFermiPotential DisplacementCurrent eCurrent hCurrent TotalCurrent
    Charge OuterVoltage InnerVoltage QuasiFermiPotential DisplacementCurrent
    eCurrent hCurrent TotalCurrent Charge ]
}

Data {
      0.00000000000000E+00
      0.00000000000000E+00   0.00000000000000E+00   0.00000000000000E+00   0.00000000000000E+00   2.89308092933595E-19
     -5.12560890818256E-34   2.89308092933594E-19   6.38848168842504E-16   0.00000000000000E+00   0.00000000000000E+00
      0.00000000000000E+00   0.00000000000000E+00   2.03235002290718E-26  -5.02663349712695E-34   2.03234997264085E-26
      8.14665093763500E-16  -5.00000000000000E-01  -5.00000000000000E-01   0.00000000000000E+00   0.00000000000000E+00
      0.00000000000000E+00   0.00000000000000E+00   0.00000000000000E+00  -3.56083764431955E-16
      0.00000000000000E+00
      0.00000000000000E+00   0.00000000000000E+00   0.00000000000000E+00   0.00000000000000E+00   1.73584875071611E-18
      3.47637245362814E-34   1.73584875071611E-18   6.38848168842502E-16   0.00000000000000E+00   0.00000000000000E+00
      0.00000000000000E+00   0.00000000000000E+00   2.01815017939338E-18   3.29229245797753E-34   2.01815017939338E-18
      8.14665093763491E-16  -5.00000000000000E-01  -5.00000000000000E-01   0.00000000000000E+00   0.00000000000000E+00
      0.00000000000000E+00   0.00000000000000E+00   0.00000000000000E+00  -3.56083764431962E-16
      1.00000000000000E-03
      0.00000000000000E+00   0.00000000000000E+00   0.00000000000000E+00   0.00000000000000E+00  -5.33582842210399E-18
     -9.32780755722198E-22  -5.33676120285971E-18   6.38659428014856E-16   1.00000000000000E-03   1.00000000000000E-03
      0.00000000000000E+00   0.00000000000000E+00   4.73336040123828E-18   9.13745459578618E-22   4.73427414669786E-18
      8.15007056744347E-16  -5.00000000000000E-01  -5.00000000000000E-01   0.00000000000000E+00   0.00000000000000E+00
      0.00000000000000E+00   0.00000000000000E+00   0.00000000000000E+00  -3.56621597486779E-16
      2.17333333333333E-03
      0.00000000000000E+00   0.00000000000000E+00   0.00000000000000E+00   0.00000000000000E+00  -5.68815509859541E-18
     -2.03865201328887E-21  -5.69019375060869E-18   6.38440246234626E-16   2.17333333333333E-03   2.17333333333333E-03
      0.00000000000000E+00   0.00000000000000E+00   8.81926811593621E-18   1.97458498819570E-21   8.82124270092440E-18
      8.15410692965023E-16  -5.00000000000000E-01  -5.00000000000000E-01   0.00000000000000E+00   0.00000000000000E+00
      0.00000000000000E+00   0.00000000000000E+00   0.00000000000000E+00  -3.57248011877031E-16
      3.56568888888889E-03
      0.00000000000000E+00   0.00000000000000E+00   0.00000000000000E+00   0.00000000000000E+00  -1.21147928712411E-17
     -3.36655374870445E-21  -1.21181594249898E-17   6.38183337824783E-16   3.56568888888889E-03   3.56568888888889E-03
      0.00000000000000E+00   0.00000000000000E+00   1.28908253471460E-17   3.21729749343315E-21   1.28940426446394E-17
      8.15893036675480E-16  -5.00000000000000E-01  -5.00000000000000E-01   0.00000000000000E+00   0.00000000000000E+00
      0.00000000000000E+00   0.00000000000000E+00   0.00000000000000E+00  -3.57984841643816E-16
      5.21795081481481E-03
      0.00000000000000E+00   0.00000000000000E+00   0.00000000000000E+00   0.00000000000000E+00  -1.51163635960935E-17
     -4.96363943055770E-21  -1.51213272355240E-17   6.37882961520206E-16   5.21795081481481E-03   5.21795081481481E-03
      0.00000000000000E+00   0.00000000000000E+00   1.46937576298921E-17   4.66870634046127E-21   1.46984263362326E-17
      8.16470150324358E-16  -5.00000000000000E-01  -5.00000000000000E-01   0.00000000000000E+00   0.00000000000000E+00
      0.00000000000000E+00   0.00000000000000E+00   0.00000000000000E+00  -3.58850025546059E-16
      7.17863496691358E-03
      0.00000000000000E+00   0.00000000000000E+00   0.00000000000000E+00   0.00000000000000E+00  -2.57634574924977E-17
     -6.88770341896228E-21  -2.57703451959167E-17   6.37532830683688E-16   7.17863496691358E-03   7.17863496691358E-03
      0.00000000000000E+00   0.00000000000000E+00   2.26347296394257E-17   6.35742946803473E-21   2.26410870688938E-17
      8.17161647679027E-16  -5.00000000000000E-01  -5.00000000000000E-01   0.00000000000000E+00   0.00000000000000E+00
      0.00000000000000E+00   0.00000000000000E+00   0.00000000000000E+00  -3.59863762260148E-16
      9.50531349407078E-03
      0.00000000000000E+00   0.00000000000000E+00   0.00000000000000E+00   0.00000000000000E+00  -3.22529873589622E-17
     -9.20954955532828E-21  -3.22621969085176E-17   6.37126218492022E-16   9.50531349407078E-03   9.50531349407078E-03
      0.00000000000000E+00   0.00000000000000E+00   2.98663956004768E-17   8.31275794154656E-21   2.98747083584183E-17
      8.17991573217848E-16  -5.00000000000000E-01  -5.00000000000000E-01   0.00000000000000E+00   0.00000000000000E+00
      0.00000000000000E+00   0.00000000000000E+00   0.00000000000000E+00  -3.61048499649302E-16
      1.22663053462973E-02
      0.00000000000000E+00   0.00000000000000E+00   0.00000000000000E+00   0.00000000000000E+00  -4.10459927997408E-17
     -1.20156796583929E-20  -4.10580084793992E-17   6.36656158296866E-16   1.22663053462973E-02   1.22663053462973E-02
      0.00000000000000E+00   0.00000000000000E+00   4.02004414009573E-17   1.05626989822316E-20   4.02110040999396E-17
      8.18989523929811E-16  -5.00000000000000E-01  -5.00000000000000E-01   0.00000000000000E+00   0.00000000000000E+00
      0.00000000000000E+00   0.00000000000000E+00   0.00000000000000E+00  -3.62428761696871E-16
      1.55426823442728E-02
      0.00000000000000E+00   0.00000000000000E+00   0.00000000000000E+00   0.00000000000000E+00  -4.87600724088420E-17
     -1.54111328462240E-20  -4.87754835416882E-17   6.36115774856682E-16   1.55426823442728E-02   1.55426823442728E-02
      0.00000000000000E+00   0.00000000000000E+00   4.82552283501081E-17   1.31308041754845E-20   4.82683591542835E-17
      8.20192076654355E-16  -5.00000000000000E-01  -5.00000000000000E-01   0.00000000000000E+00   0.00000000000000E+00
      0.00000000000000E+00   0.00000000000000E+00   0.00000000000000E+00  -3.64030743313670E-16
      1.94306497152037E-02
      0.00000000000000E+00   0.00000000000000E+00   0.00000000000000E+00   0.00000000000000E+00  -6.10218796966206E-17
     -1.95220330995888E-20  -6.10414017297202E-17   6.35498791951752E-16   1.94306497152037E-02   1.94306497152037E-02
      0.00000000000000E+00   0.00000000000000E+00   6.18704731898818E-17   1.60313581482688E-20   6.18865045480301E-17
      8.21644598498318E-16  -5.00000000000000E-01  -5.00000000000000E-01   0.00000000000000E+00   0.00000000000000E+00
      0.00000000000000E+00   0.00000000000000E+00   0.00000000000000E+00  -3.65881582690378E-16
      2.40443709953751E-02
      0.00000000000000E+00   0.00000000000000E+00   0.00000000000000E+00   0.00000000000000E+00  -7.76691328767745E-17
     -2.44970411019712E-20  -7.76936299178764E-17   6.34800250866811E-16   2.40443709953751E-02   2.40443709953751E-02
      0.00000000000000E+00   0.00000000000000E+00   7.79655238857578E-17   1.92625102752498E-20   7.79847863960330E-17
      8.23403510650046E-16  -5.00000000000000E-01  -5.00000000000000E-01   0.00000000000000E+00   0.00000000000000E+00
      0.00000000000000E+00   0.00000000000000E+00   0.00000000000000E+00  -3.68008244014033E-16
      2.95193202478451E-02
      0.00000000000000E+00   0.00000000000000E+00   0.00000000000000E+00   0.00000000000000E+00  -9.53459228188972E-17
     -3.05063054949817E-20  -9.53764291243922E-17   6.34017454949294E-16   2.95193202478451E-02   2.95193202478451E-02
      0.00000000000000E+00   0.00000000000000E+00   9.43222825016377E-17   2.27972448538965E-20   9.43450797464916E-17
      8.25539060236001E-16  -5.00000000000000E-01  -5.00000000000000E-01   0.00000000000000E+00   0.00000000000000E+00
      0.00000000000000E+00   0.00000000000000E+00   0.00000000000000E+00  -3.70435984457550E-16
      3.60162600274429E-02
      0.00000000000000E+00   0.00000000000000E+00   0.00000000000000E+00   0.00000000000000E+00  -1.15614358865122E-16
     -3.77359474695989E-20  -1.15652094812592E-16   6.33151085861475E-16   3.60162600274429E-02   3.60162600274429E-02
      0.00000000000000E+00   0.00000000000000E+00   1.14441797395888E-16   2.65728704721529E-20   1.14468370266360E-16
      8.28138586374010E-16  -5.00000000000000E-01  -5.00000000000000E-01   0.00000000000000E+00   0.00000000000000E+00
      0.00000000000000E+00   0.00000000000000E+00   0.00000000000000E+00  -3.73186527819632E-16
      4.37259618992322E-02
      0.00000000000000E+00   0.00000000000000E+00   0.00000000000000E+00   0.00000000000000E+00  -1.38005600259684E-16
     -4.63759608600499E-20  -1.38051976220545E-16   6.32206314529805E-16   4.37259618992322E-02   4.37259618992322E-02
      0.00000000000000E+00   0.00000000000000E+00   1.35479945639471E-16   3.04813426352424E-20   1.35510426982106E-16
      8.31310142618478E-16  -5.00000000000000E-01  -5.00000000000000E-01   0.00000000000000E+00   0.00000000000000E+00
      0.00000000000000E+00   0.00000000000000E+00   0.00000000000000E+00  -3.76276330895382E-16
      5.28748081204222E-02
      0.00000000000000E+00   0.00000000000000E+00   0.00000000000000E+00   0.00000000000000E+00  -1.64338814969489E-16
     -5.66008930427891E-20  -1.64395415862532E-16   6.31193528259859E-16   5.28748081204222E-02   5.28748081204222E-02
      0.00000000000000E+00   0.00000000000000E+00   1.59689253719574E-16   3.43652151593543E-20   1.59723618934733E-16
      8.35186132200110E-16  -5.00000000000000E-01  -5.00000000000000E-01   0.00000000000000E+00   0.00000000000000E+00
      0.00000000000000E+00   0.00000000000000E+00   0.00000000000000E+00  -3.79715764205501E-16
      6.37314389695677E-02
      0.00000000000000E+00   0.00000000000000E+00   0.00000000000000E+00   0.00000000000000E+00  -1.87864288722626E-16
     -6.85468320559833E-20  -1.87932835554682E-16   6.30128116003369E-16   6.37314389695677E-02   6.37314389695677E-02
      0.00000000000000E+00   0.00000000000000E+00   1.88970078607904E-16   3.80265279751009E-20   1.89008105135879E-16
      8.39926432811855E-16  -5.00000000000000E-01  -5.00000000000000E-01   0.00000000000000E+00   0.00000000000000E+00
      0.00000000000000E+00   0.00000000000000E+00   0.00000000000000E+00  -3.83510423386074E-16
      7.66146409105537E-02
      0.00000000000000E+00   0.00000000000000E+00   0.00000000000000E+00   0.00000000000000E+00  -2.17299895449435E-16
     -8.22961722635466E-20  -2.17382191621698E-16   6.29028683310861E-16   7.66146409105537E-02   7.66146409105537E-02
      0.00000000000000E+00   0.00000000000000E+00   2.19187664029335E-16   4.12555317387512E-20   2.19228919561074E-16
      8.45720427917393E-16  -5.00000000000000E-01  -5.00000000000000E-01   0.00000000000000E+00   0.00000000000000E+00
      0.00000000000000E+00   0.00000000000000E+00   0.00000000000000E+00  -3.87665950780580E-16
      9.17309311879772E-02
      0.00000000000000E+00   0.00000000000000E+00   0.00000000000000E+00   0.00000000000000E+00  -2.52734624482906E-16
     -9.77137471657205E-20  -2.52832338230072E-16   6.27925319837470E-16   9.17309311879772E-02   9.17309311879772E-02
      0.00000000000000E+00   0.00000000000000E+00   2.53951446964740E-16   4.38554863226289E-20   2.53995302451063E-16
      8.52707723017629E-16  -5.00000000000000E-01  -5.00000000000000E-01   0.00000000000000E+00   0.00000000000000E+00
      0.00000000000000E+00   0.00000000000000E+00   0.00000000000000E+00  -3.92147429199781E-16
      1.09467378446821E-01
      0.00000000000000E+00   0.00000000000000E+00   0.00000000000000E+00   0.00000000000000E+00  -2.87018186657828E-16
     -1.14793207375081E-19  -2.87132979865203E-16   6.26830969457925E-16   1.09467378446821E-01   1.09467378446821E-01
      0.00000000000000E+00   0.00000000000000E+00   2.88575733548582E-16   4.57667353607247E-20   2.88621500283943E-16
      8.61105524544368E-16  -5.00000000000000E-01  -5.00000000000000E-01   0.00000000000000E+00   0.00000000000000E+00
      0.00000000000000E+00   0.00000000000000E+00   0.00000000000000E+00  -3.96981538143383E-16
      1.30278143230531E-01
      0.00000000000000E+00   0.00000000000000E+00   0.00000000000000E+00   0.00000000000000E+00  -3.21825525485100E-16
     -1.33539630041194E-19  -3.21959065115142E-16   6.25753986475724E-16   1.30278143230531E-01   1.30278143230531E-01
      0.00000000000000E+00   0.00000000000000E+00   3.23192374801868E-16   4.70380685359387E-20   3.23239412870404E-16
      8.71159778901888E-16  -5.00000000000000E-01  -5.00000000000000E-01   0.00000000000000E+00   0.00000000000000E+00
      0.00000000000000E+00   0.00000000000000E+00   0.00000000000000E+00  -4.02213811056860E-16
      1.54696107243417E-01
      0.00000000000000E+00   0.00000000000000E+00   0.00000000000000E+00   0.00000000000000E+00  -3.60601490773072E-16
     -1.53934578976310E-19  -3.60755425352049E-16   6.24701107846205E-16   1.54696107243417E-01   1.54696107243417E-01
      0.00000000000000E+00   0.00000000000000E+00   3.59814921577103E-16   4.78054234878535E-20   3.59862727000591E-16
      8.83153365211076E-16  -5.00000000000000E-01  -5.00000000000000E-01   0.00000000000000E+00   0.00000000000000E+00
      0.00000000000000E+00   0.00000000000000E+00   0.00000000000000E+00  -4.07903717583346E-16
      1.83346518351870E-01
      0.00000000000000E+00   0.00000000000000E+00   0.00000000000000E+00   0.00000000000000E+00  -3.98788068821096E-16
     -1.75869658736063E-19  -3.98963938479832E-16   6.23680538203019E-16   1.83346518351870E-01   1.83346518351870E-01
      0.00000000000000E+00   0.00000000000000E+00   3.98095984809962E-16   4.82405582227786E-20   3.98144225368185E-16
      8.97414857476742E-16  -5.00000000000000E-01  -5.00000000000000E-01   0.00000000000000E+00   0.00000000000000E+00
      0.00000000000000E+00   0.00000000000000E+00   0.00000000000000E+00  -4.14119438098356E-16
      2.16963000719122E-01
      0.00000000000000E+00   0.00000000000000E+00   0.00000000000000E+00   0.00000000000000E+00  -4.34380662188011E-16
     -1.99096902124233E-19  -4.34579759090136E-16   6.22702766096018E-16   2.16963000719122E-01   2.16963000719122E-01
      0.00000000000000E+00   0.00000000000000E+00   4.34189524281352E-16   4.84981992904334E-20   4.34238022480642E-16
      9.14325175410748E-16  -5.00000000000000E-01  -5.00000000000000E-01   0.00000000000000E+00   0.00000000000000E+00
      0.00000000000000E+00   0.00000000000000E+00   0.00000000000000E+00  -4.20937134891177E-16
      2.56406340030030E-01
      0.00000000000000E+00   0.00000000000000E+00   0.00000000000000E+00   0.00000000000000E+00  -4.73399678024353E-16
     -2.22973097860152E-19  -4.73622651122213E-16   6.21788422689498E-16   2.56406340030030E-01   2.56406340030030E-01
      0.00000000000000E+00   0.00000000000000E+00   4.72343760050954E-16   4.86859188558226E-20   4.72392445969810E-16
      9.34331082156370E-16  -5.00000000000000E-01  -5.00000000000000E-01   0.00000000000000E+00   0.00000000000000E+00
      0.00000000000000E+00   0.00000000000000E+00   0.00000000000000E+00  -4.28424592841602E-16
      3.02686524821497E-01
      0.00000000000000E+00   0.00000000000000E+00   0.00000000000000E+00   0.00000000000000E+00  -5.07619143290554E-16
     -2.45805632145557E-19  -5.07864948922699E-16   6.20985859491820E-16   3.02686524821497E-01   3.02686524821497E-01
      0.00000000000000E+00   0.00000000000000E+00   5.11882817522154E-16   4.88622418521328E-20   5.11931679764007E-16
      9.57966504923748E-16  -5.00000000000000E-01  -5.00000000000000E-01   0.00000000000000E+00   0.00000000000000E+00
      0.00000000000000E+00   0.00000000000000E+00   0.00000000000000E+00  -4.36602680510154E-16
      3.56988608310150E-01
      0.00000000000000E+00   0.00000000000000E+00   0.00000000000000E+00   0.00000000000000E+00  -5.37500141790560E-16
     -2.65459125615464E-19  -5.37765600916176E-16   6.20342998626328E-16   3.56988608310150E-01   3.56988608310150E-01
      0.00000000000000E+00   0.00000000000000E+00   5.39201605132849E-16   4.90518692082701E-20   5.39250657002058E-16
      9.85821475271902E-16  -5.00000000000000E-01  -5.00000000000000E-01   0.00000000000000E+00   0.00000000000000E+00
      0.00000000000000E+00   0.00000000000000E+00   0.00000000000000E+00  -4.45498814470682E-16
      4.19979025156988E-01
      0.00000000000000E+00   0.00000000000000E+00   0.00000000000000E+00   0.00000000000000E+00  -5.58407875337033E-16
     -2.81821851051759E-19  -5.58689697188085E-16   6.19837422868442E-16   4.19979025156988E-01   4.19979025156988E-01
      0.00000000000000E+00   0.00000000000000E+00   5.57344593024076E-16   4.92599245945572E-20   5.57393852948671E-16
      1.01807864955932E-15  -5.00000000000000E-01  -5.00000000000000E-01   0.00000000000000E+00   0.00000000000000E+00
      0.00000000000000E+00   0.00000000000000E+00   0.00000000000000E+00  -4.55177543477448E-16
      4.93047908699321E-01
      0.00000000000000E+00   0.00000000000000E+00   0.00000000000000E+00   0.00000000000000E+00  -5.77859051465019E-16
     -2.95308927602438E-19  -5.78154360392621E-16   6.19438879047389E-16   4.93047908699321E-01   4.93047908699321E-01
      0.00000000000000E+00   0.00000000000000E+00   5.75508127392939E-16   4.94875736375776E-20   5.75557614966577E-16
      1.05515698688914E-15  -5.00000000000000E-01  -5.00000000000000E-01   0.00000000000000E+00   0.00000000000000E+00
      0.00000000000000E+00   0.00000000000000E+00   0.00000000000000E+00  -4.65733218199153E-16
      5.77807813608426E-01
      0.00000000000000E+00   0.00000000000000E+00   0.00000000000000E+00   0.00000000000000E+00  -5.92779738028108E-16
     -3.05143061284464E-19  -5.93084881089392E-16   6.19157688739786E-16   5.77807813608426E-01   5.77807813608426E-01
      0.00000000000000E+00   0.00000000000000E+00   5.95800320327198E-16   4.97345629165735E-20   5.95850054890115E-16
      1.09728887630415E-15  -5.00000000000000E-01  -5.00000000000000E-01   0.00000000000000E+00   0.00000000000000E+00
      0.00000000000000E+00   0.00000000000000E+00   0.00000000000000E+00  -4.76981561666590E-16
      6.76129303302988E-01
      0.00000000000000E+00   0.00000000000000E+00   0.00000000000000E+00   0.00000000000000E+00  -6.05530170049704E-16
     -3.13992084762509E-19  -6.05844162134467E-16   6.18911036599686E-16   6.76129303302988E-01   6.76129303302988E-01
      0.00000000000000E+00   0.00000000000000E+00   6.05848251749277E-16   4.99987473683988E-20   6.05898250496646E-16
      1.14382969414018E-15  -5.00000000000000E-01  -5.00000000000000E-01   0.00000000000000E+00   0.00000000000000E+00
      0.00000000000000E+00   0.00000000000000E+00   0.00000000000000E+00  -4.88352241988846E-16
      7.87560324956826E-01
      0.00000000000000E+00   0.00000000000000E+00   0.00000000000000E+00   0.00000000000000E+00  -6.14339458884101E-16
     -3.20898934960287E-19  -6.14660357819061E-16   6.18722407422304E-16   7.87560324956826E-01   7.87560324956826E-01
      0.00000000000000E+00   0.00000000000000E+00   6.14260603789185E-16   5.02715749507719E-20   6.14310875364136E-16
      1.19205920526318E-15  -5.00000000000000E-01  -5.00000000000000E-01   0.00000000000000E+00   0.00000000000000E+00
      0.00000000000000E+00   0.00000000000000E+00   0.00000000000000E+00  -4.98076735211429E-16
      9.12363069209124E-01
      0.00000000000000E+00   0.00000000000000E+00   0.00000000000000E+00   0.00000000000000E+00  -6.18156271990592E-16
     -3.25091817997011E-19  -6.18481363808589E-16   6.18609201473016E-16   9.12363069209124E-01   9.12363069209124E-01
      0.00000000000000E+00   0.00000000000000E+00   6.20677587497438E-16   5.05466391049672E-20   6.20728134136543E-16
      1.24232668862034E-15  -5.00000000000000E-01  -5.00000000000000E-01   0.00000000000000E+00   0.00000000000000E+00
      0.00000000000000E+00   0.00000000000000E+00   0.00000000000000E+00  -5.06447545932679E-16
      1.00000000000000E+00
      0.00000000000000E+00   0.00000000000000E+00   0.00000000000000E+00   0.00000000000000E+00  -6.23540793675783E-16
     -3.27054567632928E-19  -6.23867848243416E-16   6.18556396893301E-16   1.00000000000000E+00   1.00000000000000E+00
      0.00000000000000E+00   0.00000000000000E+00   6.22134959561631E-16   5.07215680241233E-20   6.22185681129656E-16
      1.27675112528493E-15  -5.00000000000000E-01  -5.00000000000000E-01   0.00000000000000E+00   0.00000000000000E+00
      0.00000000000000E+00   0.00000000000000E+00   0.00000000000000E+00  -5.11965609845273E-16
      0.00000000000000E+00
      0.00000000000000E+00   0.00000000000000E+00   0.00000000000000E+00   0.00000000000000E+00  -6.23243669266944E-16
     -3.27054444796967E-19  -6.23570723711741E-16   6.18556400148905E-16   1.00000000000000E+00   1.00000000000000E+00
      0.00000000000000E+00   0.00000000000000E+00   6.23329253991700E-16   5.07215680403751E-20   6.23379975559740E-16
      1.27675112807863E-15  -5.00000000000000E-01  -5.00000000000000E-01   0.00000000000000E+00   0.00000000000000E+00
      0.00000000000000E+00   0.00000000000000E+00   0.00000000000000E+00  -5.11965602953187E-16
      1.00000000000000E-03
      0.00000000000000E+00   0.00000000000000E+00   0.00000000000000E+00   0.00000000000000E+00  -6.21989053535577E-16
     -3.26954131405690E-19  -6.22316007666983E-16   6.18486437253378E-16   1.00000000000000E+00   1.00000000000000E+00
      0.00000000000000E+00   0.00000000000000E+00   6.22929007709527E-16   5.07215759777393E-20   6.22979729285505E-16
      1.27663036954839E-15  -4.98000000000000E-01  -4.98000000000000E-01   0.00000000000000E+00   0.00000000000000E+00
      0.00000000000000E+00   0.00000000000000E+00   0.00000000000000E+00  -5.10144346171228E-16
      2.17333333333333E-03
      0.00000000000000E+00   0.00000000000000E+00   0.00000000000000E+00   0.00000000000000E+00  -6.21910172310835E-16
     -3.26835459470233E-19  -6.22237007770306E-16   6.18404104165957E-16   1.00000000000000E+00   1.00000000000000E+00
      0.00000000000000E+00   0.00000000000000E+00   6.21533120887655E-16   5.07215854147353E-20   6.21583842473069E-16
      1.27648856903647E-15  -4.95653333333333E-01  -4.95653333333333E-01   0.00000000000000E+00   0.00000000000000E+00
      0.00000000000000E+00   0.00000000000000E+00   0.00000000000000E+00  -5.08010369761783E-16
      3.56568888888889E-03
      0.00000000000000E+00   0.00000000000000E+00   0.00000000000000E+00   0.00000000000000E+00  -6.22706545466447E-16
     -3.26693117824517E-19  -6.23033238584272E-16   6.18306068482156E-16   1.00000000000000E+00   1.00000000000000E+00
      0.00000000000000E+00   0.00000000000000E+00   6.24018240632694E-16   5.07215968075884E-20   6.24068962229502E-16
      1.27632014437317E-15  -4.92868622222222E-01  -4.92868622222222E-01   0.00000000000000E+00   0.00000000000000E+00
      0.00000000000000E+00   0.00000000000000E+00   0.00000000000000E+00  -5.05482252527983E-16
      5.21795081481481E-03
      0.00000000000000E+00   0.00000000000000E+00   0.00000000000000E+00   0.00000000000000E+00  -6.22889879351428E-16
     -3.26522001964387E-19  -6.23216401353392E-16   6.18189269277031E-16   1.00000000000000E+00   1.00000000000000E+00
      0.00000000000000E+00   0.00000000000000E+00   6.20929316748821E-16   5.07216106095037E-20   6.20980038359430E-16
      1.27612005811243E-15  -4.89564098370370E-01  -4.89564098370370E-01   0.00000000000000E+00   0.00000000000000E+00
      0.00000000000000E+00   0.00000000000000E+00   0.00000000000000E+00  -5.02488229622783E-16
      7.17863496691358E-03
      0.00000000000000E+00   0.00000000000000E+00   0.00000000000000E+00   0.00000000000000E+00  -6.23643853924968E-16
     -3.26315706303181E-19  -6.23970169631271E-16   6.18050025948464E-16   1.00000000000000E+00   1.00000000000000E+00
      0.00000000000000E+00   0.00000000000000E+00   6.20825456552748E-16   5.07216274032837E-20   6.20876178180152E-16
      1.27588230216770E-15  -4.85642730066173E-01  -4.85642730066173E-01   0.00000000000000E+00   0.00000000000000E+00
      0.00000000000000E+00   0.00000000000000E+00   0.00000000000000E+00  -4.98943944008712E-16
      9.50531349407078E-03
      0.00000000000000E+00   0.00000000000000E+00   0.00000000000000E+00   0.00000000000000E+00  -6.24369185424604E-16
     -3.26066104562883E-19  -6.24695251529167E-16   6.17883905341397E-16   1.00000000000000E+00   1.00000000000000E+00
      0.00000000000000E+00   0.00000000000000E+00   6.21317900655077E-16   5.07216479485049E-20   6.21368622303025E-16
      1.27559970190450E-15  -4.80989373011858E-01  -4.80989373011858E-01   0.00000000000000E+00   0.00000000000000E+00
      0.00000000000000E+00   0.00000000000000E+00   0.00000000000000E+00  -4.94750473585093E-16
      1.22663053462973E-02
      0.00000000000000E+00   0.00000000000000E+00   0.00000000000000E+00   0.00000000000000E+00  -6.20901314805471E-16
     -3.25762788972037E-19  -6.21227077594443E-16   6.17685557510592E-16   1.00000000000000E+00   1.00000000000000E+00
      0.00000000000000E+00   0.00000000000000E+00   6.22406479394058E-16   5.07216732457006E-20   6.22457201067304E-16
      1.27526367507944E-15  -4.75467389307405E-01  -4.75467389307405E-01   0.00000000000000E+00   0.00000000000000E+00
      0.00000000000000E+00   0.00000000000000E+00   0.00000000000000E+00  -4.89792183879995E-16
      1.55426823442728E-02
      0.00000000000000E+00   0.00000000000000E+00   0.00000000000000E+00   0.00000000000000E+00  -6.23625859368465E-16
     -3.25392214602565E-19  -6.23951251583068E-16   6.17448514344378E-16   1.00000000000000E+00   1.00000000000000E+00
      0.00000000000000E+00   0.00000000000000E+00   6.24688161544015E-16   5.07217046376127E-20   6.24738883248652E-16
      1.27486393417487E-15  -4.68914635311454E-01  -4.68914635311454E-01   0.00000000000000E+00   0.00000000000000E+00
      0.00000000000000E+00   0.00000000000000E+00   0.00000000000000E+00  -4.83934477975616E-16
      1.94306497152037E-02
      0.00000000000000E+00   0.00000000000000E+00   0.00000000000000E+00   0.00000000000000E+00  -6.23621554200435E-16
     -3.24936496969602E-19  -6.23946490697405E-16   6.17164938968232E-16   1.00000000000000E+00   1.00000000000000E+00
      0.00000000000000E+00   0.00000000000000E+00   6.23783320864553E-16   5.07217439541236E-20   6.23834042608507E-16
      1.27438811171504E-15  -4.61138700569592E-01  -4.61138700569592E-01   0.00000000000000E+00   0.00000000000000E+00
      0.00000000000000E+00   0.00000000000000E+00   0.00000000000000E+00  -4.77021605935136E-16
      2.40443709953751E-02
      0.00000000000000E+00   0.00000000000000E+00   0.00000000000000E+00   0.00000000000000E+00  -6.25921906130523E-16
     -3.24371668312452E-19  -6.26246277798835E-16   6.16825311815480E-16   1.00000000000000E+00   1.00000000000000E+00
      0.00000000000000E+00   0.00000000000000E+00   6.21283968430810E-16   5.07217937265689E-20   6.21334690224536E-16
      1.27382128085119E-15  -4.51911258009250E-01  -4.51911258009250E-01   0.00000000000000E+00   0.00000000000000E+00
      0.00000000000000E+00   0.00000000000000E+00   0.00000000000000E+00  -4.68874836283360E-16
      2.95193202478451E-02
      0.00000000000000E+00   0.00000000000000E+00   0.00000000000000E+00   0.00000000000000E+00  -6.24566925869055E-16
     -3.23665035643538E-19  -6.24890590904698E-16   6.16418033400729E-16   1.00000000000000E+00   1.00000000000000E+00
      0.00000000000000E+00   0.00000000000000E+00   6.23360660467806E-16   5.07218575193353E-20   6.23411382325325E-16
      1.27314533031688E-15  -4.40961359504310E-01  -4.40961359504310E-01   0.00000000000000E+00   0.00000000000000E+00
      0.00000000000000E+00   0.00000000000000E+00   0.00000000000000E+00  -4.59291537473260E-16
      3.60162600274429E-02
      0.00000000000000E+00   0.00000000000000E+00   0.00000000000000E+00   0.00000000000000E+00  -6.25173419538178E-16
     -3.22771125909368E-19  -6.25496190664087E-16   6.15928908970281E-16   1.00000000000000E+00   1.00000000000000E+00
      0.00000000000000E+00   0.00000000000000E+00   6.25931976578163E-16   5.07219404494512E-20   6.25982698518613E-16
      1.27233812976637E-15  -4.27967479945114E-01  -4.27967479945114E-01   0.00000000000000E+00   0.00000000000000E+00
      0.00000000000000E+00   0.00000000000000E+00   0.00000000000000E+00  -4.48046131249219E-16
      4.37259618992322E-02
      0.00000000000000E+00   0.00000000000000E+00   0.00000000000000E+00   0.00000000000000E+00  -6.27409771763164E-16
     -3.21625786053888E-19  -6.27731397549218E-16   6.15340440428372E-16   1.00000000000000E+00   1.00000000000000E+00
      0.00000000000000E+00   0.00000000000000E+00   6.22029328896347E-16   5.07220499585110E-20   6.22080050946306E-16
      1.27137237966678E-15  -4.12548076201536E-01  -4.12548076201536E-01   0.00000000000000E+00   0.00000000000000E+00
      0.00000000000000E+00   0.00000000000000E+00   0.00000000000000E+00  -4.34894540830333E-16
      5.28748081204222E-02
      0.00000000000000E+00   0.00000000000000E+00   0.00000000000000E+00   0.00000000000000E+00  -6.23427992428382E-16
     -3.20137152975009E-19  -6.23748129581357E-16   6.14630796891861E-16   1.00000000000000E+00   1.00000000000000E+00