DF-ISE text

Info {
  version   = 1.0
  type      = xyplot
  datasets  = [
    "time"
    "S OuterVoltage" "S InnerVoltage" "S QuasiFermiPotential" "S DisplacementCurrent" "S eCurrent"
    "S hCurrent" "S TotalCurrent" "S Charge" "D OuterVoltage" "D InnerVoltage"
    "D QuasiFermiPotential" "D DisplacementCurrent" "D eCurrent" "D hCurrent" "D TotalCurrent"
    "D Charge" "G OuterVoltage" "G InnerVoltage" "G QuasiFermiPotential" "G DisplacementCurrent"
    "G eCurrent" "G hCurrent" "G TotalCurrent" "G Charge" ]
  functions = [
    Time
    OuterVoltage InnerVoltage QuasiFermiPotential DisplacementCurrent eCurrent
    hCurrent TotalCurrent Charge OuterVoltage InnerVoltage
    QuasiFermiPotential DisplacementCurrent eCurrent hCurrent TotalCurrent
    Charge OuterVoltage InnerVoltage QuasiFermiPotential DisplacementCurrent
    eCurrent hCurrent TotalCurrent Charge ]
}

Data {
      0.00000000000000E+00
      0.00000000000000E+00   0.00000000000000E+00   0.00000000000000E+00   0.00000000000000E+00  -9.70292964789867E-19
     -1.30636977249789E-34  -9.70292964789867E-19   4.30722726531212E-16   0.00000000000000E+00   0.00000000000000E+00
      0.00000000000000E+00   0.00000000000000E+00   7.67441101864843E-37  -1.08888303328729E-34  -1.08120862226864E-34
      6.18064636474599E-16  -5.00000000000000E-01  -5.00000000000000E-01   0.00000000000000E+00   0.00000000000000E+00
      0.00000000000000E+00   0.00000000000000E+00   0.00000000000000E+00  -3.17142957001022E-16
      0.00000000000000E+00
      0.00000000000000E+00   0.00000000000000E+00   0.00000000000000E+00   0.00000000000000E+00   1.06732035464496E-17
     -2.59131908863435E-32   1.06732035464496E-17   4.30722726528282E-16   0.00000000000000E+00   0.00000000000000E+00
      0.00000000000000E+00   0.00000000000000E+00  -4.84330905286309E-18  -2.61017869246884E-32  -4.84330905286311E-18
      6.18064636471114E-16  -5.00000000000000E-01  -5.00000000000000E-01   0.00000000000000E+00   0.00000000000000E+00
      0.00000000000000E+00   0.00000000000000E+00   0.00000000000000E+00  -3.17142957001233E-16
      1.00000000000000E-03
      0.00000000000000E+00   0.00000000000000E+00   0.00000000000000E+00   0.00000000000000E+00  -1.46086400954318E-17
     -3.17164961391524E-22  -1.46089572603932E-17   4.30662904956292E-16   1.00000000000000E-03   1.00000000000000E-03
      0.00000000000000E+00   0.00000000000000E+00   9.82063299857436E-18   8.92246586870740E-22   9.82152524516123E-18
      6.18350950897646E-16  -5.00000000000000E-01  -5.00000000000000E-01   0.00000000000000E+00   0.00000000000000E+00
      0.00000000000000E+00   0.00000000000000E+00   0.00000000000000E+00  -3.17530203591109E-16
      2.17333333333333E-03
      0.00000000000000E+00   0.00000000000000E+00   0.00000000000000E+00   0.00000000000000E+00   3.76554387311382E-18
     -6.89731542421928E-22   3.76485414157140E-18   4.30593335696945E-16   2.17333333333333E-03   2.17333333333333E-03
      0.00000000000000E+00   0.00000000000000E+00  -6.76979224961470E-19   1.91057084661111E-21  -6.75068654114859E-19
      6.18687468841111E-16  -5.00000000000000E-01  -5.00000000000000E-01   0.00000000000000E+00   0.00000000000000E+00
      0.00000000000000E+00   0.00000000000000E+00   0.00000000000000E+00  -3.17981570906480E-16
      3.56568888888889E-03
      0.00000000000000E+00   0.00000000000000E+00   0.00000000000000E+00   0.00000000000000E+00   4.66229090539279E-18
     -1.13242266422245E-21   4.66115848272857E-18   4.30511634907663E-16   3.56568888888889E-03   3.56568888888889E-03
      0.00000000000000E+00   0.00000000000000E+00  -3.40036091293161E-18   3.07988447808299E-21  -3.39728102845353E-18
      6.19087592682465E-16  -5.00000000000000E-01  -5.00000000000000E-01   0.00000000000000E+00   0.00000000000000E+00
      0.00000000000000E+00   0.00000000000000E+00   0.00000000000000E+00  -3.18513064851914E-16
      5.21795081481481E-03
      0.00000000000000E+00   0.00000000000000E+00   0.00000000000000E+00   0.00000000000000E+00  -5.13038286461762E-18
     -1.65853958864028E-21  -5.13204140420626E-18   4.30415860489673E-16   5.21795081481481E-03   5.21795081481481E-03
      0.00000000000000E+00   0.00000000000000E+00  -2.86771577180950E-19   4.41395872193524E-21  -2.82357618459014E-19
      6.19563488848541E-16  -5.00000000000000E-01  -5.00000000000000E-01   0.00000000000000E+00   0.00000000000000E+00
      0.00000000000000E+00   0.00000000000000E+00   0.00000000000000E+00  -3.19138085905384E-16
      7.17863496691358E-03
      0.00000000000000E+00   0.00000000000000E+00   0.00000000000000E+00   0.00000000000000E+00  -2.75592810372604E-17
     -2.28394703536456E-21  -2.75615649842958E-17   4.30303821547427E-16   7.17863496691358E-03   7.17863496691358E-03
      0.00000000000000E+00   0.00000000000000E+00   2.31767733384069E-17   5.92425479835884E-21   2.31826975932053E-17
      6.20129695270076E-16  -5.00000000000000E-01  -5.00000000000000E-01   0.00000000000000E+00   0.00000000000000E+00
      0.00000000000000E+00   0.00000000000000E+00   0.00000000000000E+00  -3.19871987349483E-16
      9.50531349407078E-03
      0.00000000000000E+00   0.00000000000000E+00   0.00000000000000E+00   0.00000000000000E+00  -3.15675193200591E-17
     -3.02759524409889E-21  -3.15705469153032E-17   4.30173065695904E-16   9.50531349407078E-03   9.50531349407078E-03
      0.00000000000000E+00   0.00000000000000E+00   1.57044917142257E-17   7.61813111193952E-21   1.57121098453376E-17
      6.20803591637853E-16  -5.00000000000000E-01  -5.00000000000000E-01   0.00000000000000E+00   0.00000000000000E+00
      0.00000000000000E+00   0.00000000000000E+00   0.00000000000000E+00  -3.20732276814120E-16
      1.22663053462973E-02
      0.00000000000000E+00   0.00000000000000E+00   0.00000000000000E+00   0.00000000000000E+00  -2.00666992717551E-17
     -3.91216984279305E-21  -2.00706114415979E-17   4.30020870256664E-16   1.22663053462973E-02   1.22663053462973E-02
      0.00000000000000E+00   0.00000000000000E+00   7.30464516768833E-18   9.49654301645745E-21   7.31414171070479E-18
      6.21605960858635E-16  -5.00000000000000E-01  -5.00000000000000E-01   0.00000000000000E+00   0.00000000000000E+00
      0.00000000000000E+00   0.00000000000000E+00   0.00000000000000E+00  -3.21738824867642E-16
      1.55426823442728E-02
      0.00000000000000E+00   0.00000000000000E+00   0.00000000000000E+00   0.00000000000000E+00  -1.82984334527809E-17
     -4.96491960329745E-21  -1.83033983723842E-17   4.29844236393210E-16   1.55426823442728E-02   1.55426823442728E-02
      0.00000000000000E+00   0.00000000000000E+00   1.63461583574068E-17   1.15512766710067E-20   1.63577096340778E-17
      6.22561655839721E-16  -5.00000000000000E-01  -5.00000000000000E-01   0.00000000000000E+00   0.00000000000000E+00
      0.00000000000000E+00   0.00000000000000E+00   0.00000000000000E+00  -3.22914089538956E-16
      1.94306497152037E-02
      0.00000000000000E+00   0.00000000000000E+00   0.00000000000000E+00   0.00000000000000E+00  -3.11285870699400E-17
     -6.21879486319454E-21  -3.11348058648032E-17   4.29639874884531E-16   1.94306497152037E-02   1.94306497152037E-02
      0.00000000000000E+00   0.00000000000000E+00   3.21757710797529E-17   1.37618811238879E-20   3.21895329608768E-17
      6.23700377824989E-16  -5.00000000000000E-01  -5.00000000000000E-01   0.00000000000000E+00   0.00000000000000E+00
      0.00000000000000E+00   0.00000000000000E+00   0.00000000000000E+00  -3.24283414799030E-16
      2.40443709953751E-02
      0.00000000000000E+00   0.00000000000000E+00   0.00000000000000E+00   0.00000000000000E+00  -5.08122027862147E-17
     -7.71407907607258E-21  -5.08199168652908E-17   4.29404170918899E-16   2.40443709953751E-02   2.40443709953751E-02
      0.00000000000000E+00   0.00000000000000E+00   4.70430401750169E-17   1.60927280653361E-20   4.70591329030822E-17
      6.25057574103417E-16  -5.00000000000000E-01  -5.00000000000000E-01   0.00000000000000E+00   0.00000000000000E+00
      0.00000000000000E+00   0.00000000000000E+00   0.00000000000000E+00  -3.25875467663271E-16
      2.95193202478451E-02
      0.00000000000000E+00   0.00000000000000E+00   0.00000000000000E+00   0.00000000000000E+00  -6.07987185309785E-17
     -9.50073717195732E-21  -6.08082192681505E-17   4.29133119228972E-16   2.95193202478451E-02   2.95193202478451E-02
      0.00000000000000E+00   0.00000000000000E+00   5.71183418596726E-17   1.84909831147178E-20   5.71368328427873E-17
      6.26675470212745E-16  -5.00000000000000E-01  -5.00000000000000E-01   0.00000000000000E+00   0.00000000000000E+00
      0.00000000000000E+00   0.00000000000000E+00   0.00000000000000E+00  -3.27722860473119E-16
      3.59432607040766E-02
      0.00000000000000E+00   0.00000000000000E+00   0.00000000000000E+00   0.00000000000000E+00  -7.47444037023638E-17
     -1.16184250507546E-20  -7.47560221274145E-17   4.28825546547336E-16   3.59432607040766E-02   3.59432607040766E-02
      0.00000000000000E+00   0.00000000000000E+00   5.65747370131790E-17   2.08619199907296E-20   5.65955989331697E-17
      6.28582429621361E-16  -5.00000000000000E-01  -5.00000000000000E-01   0.00000000000000E+00   0.00000000000000E+00
      0.00000000000000E+00   0.00000000000000E+00   0.00000000000000E+00  -3.29839751893799E-16
      4.34806841727216E-02
      0.00000000000000E+00   0.00000000000000E+00   0.00000000000000E+00   0.00000000000000E+00  -6.73652315230760E-17
     -1.41409863067360E-20  -6.73793725093827E-17   4.28476793649418E-16   4.34806841727216E-02   4.34806841727216E-02
      0.00000000000000E+00   0.00000000000000E+00   9.16409424143044E-17   2.31289758971888E-20   9.16640713902016E-17
      6.30829497732703E-16  -5.00000000000000E-01  -5.00000000000000E-01   0.00000000000000E+00   0.00000000000000E+00
      0.00000000000000E+00   0.00000000000000E+00   0.00000000000000E+00  -3.32264526037089E-16
      5.23245943759316E-02
      0.00000000000000E+00   0.00000000000000E+00   0.00000000000000E+00   0.00000000000000E+00  -1.01872421013970E-16
     -1.71688618162602E-20  -1.01889589875786E-16   4.28080927740061E-16   5.23245943759316E-02   5.23245943759316E-02
      0.00000000000000E+00   0.00000000000000E+00   9.10442076037670E-17   2.52123633743160E-20   9.10694199671413E-17
      6.33475851675036E-16  -5.00000000000000E-01  -5.00000000000000E-01   0.00000000000000E+00   0.00000000000000E+00
      0.00000000000000E+00   0.00000000000000E+00   0.00000000000000E+00  -3.35044229552898E-16
      6.27014490143648E-02
      0.00000000000000E+00   0.00000000000000E+00   0.00000000000000E+00   0.00000000000000E+00  -1.00491106933017E-16
     -2.08438840776274E-20  -1.00511950817094E-16   4.27630064588010E-16   6.27014490143648E-02   6.27014490143648E-02
      0.00000000000000E+00   0.00000000000000E+00   1.07690220990449E-16   2.70392777526702E-20   1.07717260268201E-16
      6.36589696712276E-16  -5.00000000000000E-01  -5.00000000000000E-01   0.00000000000000E+00   0.00000000000000E+00
      0.00000000000000E+00   0.00000000000000E+00   0.00000000000000E+00  -3.38238126663302E-16
      7.48769584567930E-02
      0.00000000000000E+00   0.00000000000000E+00   0.00000000000000E+00   0.00000000000000E+00  -1.36209487290061E-16
     -2.53723479166127E-20  -1.36234859637978E-16   4.27113561364747E-16   7.48769584567930E-02   7.48769584567930E-02
      0.00000000000000E+00   0.00000000000000E+00   1.06995316289686E-16   2.85557962236313E-20   1.07023872085910E-16
      6.40249306534971E-16  -5.00000000000000E-01  -5.00000000000000E-01   0.00000000000000E+00   0.00000000000000E+00
      0.00000000000000E+00   0.00000000000000E+00   0.00000000000000E+00  -3.41921879945218E-16
      8.91628895359088E-02
      0.00000000000000E+00   0.00000000000000E+00   0.00000000000000E+00   0.00000000000000E+00  -1.40939087392379E-16
     -3.10585287258685E-20  -1.40970145921105E-16   4.26517385671474E-16   8.91628895359088E-02   8.91628895359088E-02
      0.00000000000000E+00   0.00000000000000E+00   1.41612271858155E-16   2.97373595532159E-20   1.41642009217708E-16
      6.44544551805652E-16  -5.00000000000000E-01  -5.00000000000000E-01   0.00000000000000E+00   0.00000000000000E+00
      0.00000000000000E+00   0.00000000000000E+00   0.00000000000000E+00  -3.46190924996904E-16
      1.05925048668738E-01
      0.00000000000000E+00   0.00000000000000E+00   0.00000000000000E+00   0.00000000000000E+00  -1.72179400168566E-16
     -3.83476625249469E-20  -1.72217747831091E-16   4.25824353345062E-16   1.05925048668738E-01   1.05925048668738E-01
      0.00000000000000E+00   0.00000000000000E+00   1.84587092560069E-16   3.05939567974067E-20   1.84617686516867E-16
      6.49579619908182E-16  -5.00000000000000E-01  -5.00000000000000E-01   0.00000000000000E+00   0.00000000000000E+00
      0.00000000000000E+00   0.00000000000000E+00   0.00000000000000E+00  -3.51159823997933E-16
      1.25592648717924E-01
      0.00000000000000E+00   0.00000000000000E+00   0.00000000000000E+00   0.00000000000000E+00  -1.93962290664073E-16
     -4.78679068026610E-20  -1.94010158570876E-16   4.25016379608513E-16   1.25592648717924E-01   1.25592648717924E-01
      0.00000000000000E+00   0.00000000000000E+00   1.94947172971631E-16   3.11673650903081E-20   1.94978340336721E-16
      6.55478007543177E-16  -5.00000000000000E-01  -5.00000000000000E-01   0.00000000000000E+00   0.00000000000000E+00
      0.00000000000000E+00   0.00000000000000E+00   0.00000000000000E+00  -3.56952340705112E-16
      1.48669299442303E-01
      0.00000000000000E+00   0.00000000000000E+00   0.00000000000000E+00   0.00000000000000E+00  -2.37565766289215E-16
     -6.04347574105234E-20  -2.37626201046625E-16   4.24080284898888E-16   1.48669299442303E-01   1.48669299442303E-01
      0.00000000000000E+00   0.00000000000000E+00   2.55425019845506E-16   3.15208700720884E-20   2.55456540715578E-16
      6.62391121886586E-16  -5.00000000000000E-01  -5.00000000000000E-01   0.00000000000000E+00   0.00000000000000E+00
      0.00000000000000E+00   0.00000000000000E+00   0.00000000000000E+00  -3.63675268892082E-16
      1.75438214282582E-01
      0.00000000000000E+00   0.00000000000000E+00   0.00000000000000E+00   0.00000000000000E+00  -2.70865654160470E-16
     -7.67386223828310E-20  -2.70942392782853E-16   4.23029561407516E-16   1.75438214282582E-01   1.75438214282582E-01
      0.00000000000000E+00   0.00000000000000E+00   2.68309656668937E-16   3.17229541094689E-20   2.68341379623047E-16
      6.70418374410118E-16  -5.00000000000000E-01  -5.00000000000000E-01   0.00000000000000E+00   0.00000000000000E+00
      0.00000000000000E+00   0.00000000000000E+00   0.00000000000000E+00  -3.71287491060669E-16
      2.06490155497306E-01
      0.00000000000000E+00   0.00000000000000E+00   0.00000000000000E+00   0.00000000000000E+00  -3.35850230919469E-16
     -9.72501035515662E-20  -3.35947481023021E-16   4.21893638971905E-16   2.06490155497306E-01   2.06490155497306E-01
      0.00000000000000E+00   0.00000000000000E+00   3.17041940596306E-16   3.18384134079381E-20   3.17073779009714E-16
      6.79773374145528E-16  -5.00000000000000E-01  -5.00000000000000E-01   0.00000000000000E+00   0.00000000000000E+00
      0.00000000000000E+00   0.00000000000000E+00   0.00000000000000E+00  -3.79705240468730E-16
      2.42096381423522E-01
      0.00000000000000E+00   0.00000000000000E+00   0.00000000000000E+00   0.00000000000000E+00  -3.69826944349619E-16
     -1.21214671613567E-19  -3.69948159021232E-16   4.20743771375111E-16   2.42096381423522E-01   2.42096381423522E-01
      0.00000000000000E+00   0.00000000000000E+00   3.76217571680642E-16   3.19128149075334E-20   3.76249484495549E-16
      6.90594492972826E-16  -5.00000000000000E-01  -5.00000000000000E-01   0.00000000000000E+00   0.00000000000000E+00
      0.00000000000000E+00   0.00000000000000E+00   0.00000000000000E+00  -3.88619183457188E-16
      2.82450104139901E-01
      0.00000000000000E+00   0.00000000000000E+00   0.00000000000000E+00   0.00000000000000E+00  -4.23425166289099E-16
     -1.46225286756197E-19  -4.23571391575856E-16   4.19668373768452E-16   2.82450104139901E-01   2.82450104139901E-01
      0.00000000000000E+00   0.00000000000000E+00   4.32754604681721E-16   3.19741098910732E-20   4.32786578791612E-16
      7.03001493597608E-16  -5.00000000000000E-01  -5.00000000000000E-01   0.00000000000000E+00   0.00000000000000E+00
      0.00000000000000E+00   0.00000000000000E+00   0.00000000000000E+00  -3.97633679313035E-16
      3.28184323218464E-01
      0.00000000000000E+00   0.00000000000000E+00   0.00000000000000E+00   0.00000000000000E+00  -4.67904934694066E-16
     -1.68833491759210E-19  -4.68073768185825E-16   4.18731887324437E-16   3.28184323218464E-01   3.28184323218464E-01
      0.00000000000000E+00   0.00000000000000E+00   4.48887749775087E-16   3.20368469690649E-20   4.48919786622056E-16
      7.17227561540738E-16  -5.00000000000000E-01  -5.00000000000000E-01   0.00000000000000E+00   0.00000000000000E+00
      0.00000000000000E+00   0.00000000000000E+00   0.00000000000000E+00  -4.06504858614516E-16
      3.79406648586454E-01
      0.00000000000000E+00   0.00000000000000E+00   0.00000000000000E+00   0.00000000000000E+00  -4.96227846704627E-16
     -1.86215629169760E-19  -4.96414062333797E-16   4.17948748322532E-16   3.79406648586454E-01   3.79406648586454E-01
      0.00000000000000E+00   0.00000000000000E+00   5.02328323936954E-16   3.21064351550591E-20   5.02360430372109E-16
      7.33276896030903E-16  -5.00000000000000E-01  -5.00000000000000E-01   0.00000000000000E+00   0.00000000000000E+00
      0.00000000000000E+00   0.00000000000000E+00   0.00000000000000E+00  -4.15158087652195E-16
      4.36775652998603E-01
      0.00000000000000E+00   0.00000000000000E+00   0.00000000000000E+00   0.00000000000000E+00  -5.14291090272577E-16
     -1.98045796570659E-19  -5.14489136069147E-16   4.17261574748400E-16   4.36775652998603E-01   4.36775652998603E-01
      0.00000000000000E+00   0.00000000000000E+00   5.04832889240218E-16   3.21877693601601E-20   5.04865077009578E-16
      7.51258766492647E-16  -5.00000000000000E-01  -5.00000000000000E-01   0.00000000000000E+00   0.00000000000000E+00
      0.00000000000000E+00   0.00000000000000E+00   0.00000000000000E+00  -4.23894470805564E-16
      5.01028937940210E-01
      0.00000000000000E+00   0.00000000000000E+00   0.00000000000000E+00   0.00000000000000E+00  -5.21266693766356E-16
     -2.05189634471288E-19  -5.21471883400827E-16   4.16594716207519E-16   5.01028937940210E-01   5.01028937940210E-01
      0.00000000000000E+00   0.00000000000000E+00   5.35376602251531E-16   3.22836886041253E-20   5.35408885940135E-16
      7.71273990280373E-16  -5.00000000000000E-01  -5.00000000000000E-01   0.00000000000000E+00   0.00000000000000E+00
      0.00000000000000E+00   0.00000000000000E+00   0.00000000000000E+00  -4.33102278363355E-16
      5.73849327540697E-01
      0.00000000000000E+00   0.00000000000000E+00   0.00000000000000E+00   0.00000000000000E+00  -5.24146787055087E-16
     -2.09211605294881E-19  -5.24355998660382E-16   4.15851893986458E-16   5.73849327540697E-01   5.73849327540697E-01
      0.00000000000000E+00   0.00000000000000E+00   5.20093366068553E-16   3.23869814985519E-20   5.20125753050051E-16
      7.93676528231181E-16  -5.00000000000000E-01  -5.00000000000000E-01   0.00000000000000E+00   0.00000000000000E+00
      0.00000000000000E+00   0.00000000000000E+00   0.00000000000000E+00  -4.43355323795768E-16
      6.56379102421250E-01
      0.00000000000000E+00   0.00000000000000E+00   0.00000000000000E+00   0.00000000000000E+00  -5.36017001287957E-16
     -2.11324388168053E-19  -5.36228325676125E-16   4.14941154640627E-16   6.56379102421250E-01   6.56379102421250E-01
      0.00000000000000E+00   0.00000000000000E+00   5.32067756962343E-16   3.24981573026615E-20   5.32100255119646E-16
      8.18603454296173E-16  -5.00000000000000E-01  -5.00000000000000E-01   0.00000000000000E+00   0.00000000000000E+00
      0.00000000000000E+00   0.00000000000000E+00   0.00000000000000E+00  -4.55158148375648E-16
      7.51013244284284E-01
      0.00000000000000E+00   0.00000000000000E+00   0.00000000000000E+00   0.00000000000000E+00  -5.93726986908144E-16
     -2.12302510028448E-19  -5.93939289418173E-16   4.13750047188970E-16   7.51013244284284E-01   7.51013244284284E-01
      0.00000000000000E+00   0.00000000000000E+00   5.66290280567434E-16   3.26193129348929E-20   5.66322899880369E-16
      8.46521599578296E-16  -5.00000000000000E-01  -5.00000000000000E-01   0.00000000000000E+00   0.00000000000000E+00
      0.00000000000000E+00   0.00000000000000E+00   0.00000000000000E+00  -4.69204824681254E-16
      8.59527060287230E-01
      0.00000000000000E+00   0.00000000000000E+00   0.00000000000000E+00   0.00000000000000E+00  -6.55391936110546E-16
     -2.12659687457980E-19  -6.55604595798004E-16   4.12165486277034E-16   8.59527060287230E-01   8.59527060287230E-01
      0.00000000000000E+00   0.00000000000000E+00   6.18942478035489E-16   3.27511086927489E-20   6.18975229144181E-16
      8.77736483265008E-16  -5.00000000000000E-01  -5.00000000000000E-01   0.00000000000000E+00   0.00000000000000E+00
      0.00000000000000E+00   0.00000000000000E+00   0.00000000000000E+00  -4.86035810182211E-16
      9.85403086850646E-01
      0.00000000000000E+00   0.00000000000000E+00   0.00000000000000E+00   0.00000000000000E+00  -7.97684899009687E-16
     -2.12732922846548E-19  -7.97897631932534E-16   4.10072405071535E-16   9.85403086850646E-01   9.85403086850646E-01
      0.00000000000000E+00   0.00000000000000E+00   7.88361830775561E-16   3.28966062234867E-20   7.88394727381784E-16
      9.13210601047662E-16  -5.00000000000000E-01  -5.00000000000000E-01   0.00000000000000E+00   0.00000000000000E+00
      0.00000000000000E+00   0.00000000000000E+00   0.00000000000000E+00  -5.06211149374829E-16
      1.00000000000000E+00
      0.00000000000000E+00   0.00000000000000E+00   0.00000000000000E+00   0.00000000000000E+00  -8.47161747159216E-16
     -2.12745865597213E-19  -8.47374493024813E-16   4.09815779731397E-16   1.00000000000000E+00   1.00000000000000E+00
      0.00000000000000E+00   0.00000000000000E+00   8.64504564563887E-16   3.29130701405919E-20   8.64537477634027E-16
      9.17291247432553E-16  -5.00000000000000E-01  -5.00000000000000E-01   0.00000000000000E+00   0.00000000000000E+00
      0.00000000000000E+00   0.00000000000000E+00   0.00000000000000E+00  -5.08577304576902E-16
      0.00000000000000E+00
      0.00000000000000E+00   0.00000000000000E+00   0.00000000000000E+00   0.00000000000000E+00  -8.40181701730888E-16
     -2.12746626783922E-19  -8.40394448357672E-16   4.09815764657664E-16   1.00000000000000E+00   1.00000000000000E+00
      0.00000000000000E+00   0.00000000000000E+00   8.53487143148878E-16   3.29130700841318E-20   8.53520056218962E-16
      9.17291239387485E-16  -5.00000000000000E-01  -5.00000000000000E-01   0.00000000000000E+00   0.00000000000000E+00
      0.00000000000000E+00   0.00000000000000E+00   0.00000000000000E+00  -5.08577379275692E-16
      1.00000000000000E-03
      0.00000000000000E+00   0.00000000000000E+00   0.00000000000000E+00   0.00000000000000E+00  -8.44121193001483E-16
     -2.11874366358631E-19  -8.44333067367842E-16   4.09789286641413E-16   1.00000000000000E+00   1.00000000000000E+00
      0.00000000000000E+00   0.00000000000000E+00   8.22154195241028E-16   3.29128615228160E-20   8.22187108102551E-16
      9.16975977101830E-16  -4.98000000000000E-01  -4.98000000000000E-01   0.00000000000000E+00   0.00000000000000E+00
      0.00000000000000E+00   0.00000000000000E+00   0.00000000000000E+00  -5.06275504800908E-16
      2.14666666666667E-03
      0.00000000000000E+00   0.00000000000000E+00   0.00000000000000E+00   0.00000000000000E+00  -8.35077103756267E-16
     -2.10880800164064E-19  -8.35287984556431E-16   4.09758710056657E-16   1.00000000000000E+00   1.00000000000000E+00
      0.00000000000000E+00   0.00000000000000E+00   8.50151544618465E-16   3.29126216952459E-20   8.50184457240161E-16
      9.16614263539913E-16  -4.95706666666667E-01  -4.95706666666667E-01   0.00000000000000E+00   0.00000000000000E+00
      0.00000000000000E+00   0.00000000000000E+00   0.00000000000000E+00  -5.03636790962946E-16
      3.52266666666667E-03
      0.00000000000000E+00   0.00000000000000E+00   0.00000000000000E+00   0.00000000000000E+00  -8.54937463901896E-16
     -2.09694503319864E-19  -8.55147158405216E-16   4.09721779144439E-16   1.00000000000000E+00   1.00000000000000E+00
      0.00000000000000E+00   0.00000000000000E+00   8.28150246222144E-16   3.29123332015832E-20   8.28183158555345E-16
      9.16179947754932E-16  -4.92954666666667E-01  -4.92954666666667E-01   0.00000000000000E+00   0.00000000000000E+00
      0.00000000000000E+00   0.00000000000000E+00   0.00000000000000E+00  -5.00471086838776E-16
      5.17386666666667E-03
      0.00000000000000E+00   0.00000000000000E+00   0.00000000000000E+00   0.00000000000000E+00  -8.33905568190080E-16
     -2.08277597632670E-19  -8.34113845787713E-16   4.09677153555706E-16   1.00000000000000E+00   1.00000000000000E+00
      0.00000000000000E+00   0.00000000000000E+00   8.34125054802911E-16   3.29119861567182E-20   8.34157966789067E-16
      9.15658424512371E-16  -4.89652266666667E-01  -4.89652266666667E-01   0.00000000000000E+00   0.00000000000000E+00
      0.00000000000000E+00   0.00000000000000E+00   0.00000000000000E+00  -4.96673126458547E-16
      7.15530666666667E-03
      0.00000000000000E+00   0.00000000000000E+00   0.00000000000000E+00   0.00000000000000E+00  -8.53729405717718E-16
     -2.06594424683385E-19  -8.53936000142401E-16   4.09623000494321E-16   1.00000000000000E+00   1.00000000000000E+00
      0.00000000000000E+00   0.00000000000000E+00   8.52824123872324E-16   3.29115679208344E-20   8.52857035440244E-16
      9.15032033990171E-16  -4.85689386666667E-01  -4.85689386666667E-01   0.00000000000000E+00   0.00000000000000E+00
      0.00000000000000E+00   0.00000000000000E+00   0.00000000000000E+00  -4.92117596175225E-16
      9.50661546666667E-03
      0.00000000000000E+00   0.00000000000000E+00   0.00000000000000E+00   0.00000000000000E+00  -8.31658028231658E-16
     -2.04607208792581E-19  -8.31862635440450E-16   4.09558158721903E-16   1.00000000000000E+00   1.00000000000000E+00
      0.00000000000000E+00   0.00000000000000E+00   8.70687027517423E-16   3.29110701772726E-20   8.70719938587601E-16
      9.14288094438825E-16  -4.80986769066667E-01  -4.80986769066667E-01   0.00000000000000E+00   0.00000000000000E+00
      0.00000000000000E+00   0.00000000000000E+00   0.00000000000000E+00  -4.86713146310837E-16
      1.22968352426667E-02
      0.00000000000000E+00   0.00000000000000E+00   0.00000000000000E+00   0.00000000000000E+00  -8.31492448313849E-16
     -2.02271923479456E-19  -8.31694720237328E-16   4.09480204741557E-16   1.00000000000000E+00   1.00000000000000E+00
      0.00000000000000E+00   0.00000000000000E+00   8.32614519104249E-16   3.29104768845486E-20   8.32647429581133E-16
      9.13404352774728E-16  -4.75406329514667E-01  -4.75406329514667E-01   0.00000000000000E+00   0.00000000000000E+00
      0.00000000000000E+00   0.00000000000000E+00   0.00000000000000E+00  -4.80302750711994E-16
      1.55706931131733E-02
      0.00000000000000E+00   0.00000000000000E+00   0.00000000000000E+00   0.00000000000000E+00  -8.61222373624281E-16
     -1.99558517879503E-19  -8.61421932142160E-16   4.09387414530996E-16   1.00000000000000E+00   1.00000000000000E+00
      0.00000000000000E+00   0.00000000000000E+00   8.66612204180761E-16   3.29097775396567E-20   8.66645113958301E-16
      9.12366246384428E-16  -4.68858613773653E-01  -4.68858613773653E-01   0.00000000000000E+00   0.00000000000000E+00
      0.00000000000000E+00   0.00000000000000E+00   0.00000000000000E+00  -4.72784690722203E-16
      1.94120196812345E-02
      0.00000000000000E+00   0.00000000000000E+00   0.00000000000000E+00   0.00000000000000E+00  -8.58019325319827E-16
     -1.96414187419175E-19  -8.58215739507246E-16   4.09276611676014E-16   1.00000000000000E+00   1.00000000000000E+00
      0.00000000000000E+00   0.00000000000000E+00   8.46368569173854E-16   3.29089524140587E-20   8.46401478126268E-16
      9.11146624968812E-16  -4.61175960637531E-01  -4.61175960637531E-01   0.00000000000000E+00   0.00000000000000E+00
      0.00000000000000E+00   0.00000000000000E+00   0.00000000000000E+00  -4.63968541994725E-16
      2.39191761877596E-02
      0.00000000000000E+00   0.00000000000000E+00   0.00000000000000E+00   0.00000000000000E+00  -8.64757066752553E-16
     -1.92778564441232E-19  -8.64949845316994E-16   4.09143872065351E-16   1.00000000000000E+00   1.00000000000000E+00
      0.00000000000000E+00   0.00000000000000E+00   8.73625866989187E-16   3.29079781160996E-20   8.73658774967303E-16
      9.09713555009195E-16  -4.52161647624481E-01  -4.52161647624481E-01   0.00000000000000E+00   0.00000000000000E+00
      0.00000000000000E+00   0.00000000000000E+00   0.00000000000000E+00  -4.53631157836729E-16
      2.92075731554157E-02
      0.00000000000000E+00   0.00000000000000E+00   0.00000000000000E+00   0.00000000000000E+00  -8.54489827777652E-16
     -1.88588859483924E-19  -8.54678416637136E-16   4.08984173789902E-16   1.00000000000000E+00   1.00000000000000E+00
      0.00000000000000E+00   0.00000000000000E+00   8.56815259922967E-16   3.29068263963788E-20   8.56848166749363E-16
      9.08029408654829E-16  -4.41584853689169E-01  -4.41584853689169E-01   0.00000000000000E+00   0.00000000000000E+00
      0.00000000000000E+00   0.00000000000000E+00   0.00000000000000E+00  -4.41511745885971E-16
      3.53421136378968E-02
      0.00000000000000E+00   0.00000000000000E+00   0.00000000000000E+00   0.00000000000000E+00  -8.70122138484022E-16
     -1.83823033266771E-19  -8.70305961517289E-16   4.08793525085162E-16   1.00000000000000E+00   1.00000000000000E+00