DF-ISE text

Info {
  version   = 1.0
  type      = xyplot
  datasets  = [
    "time"
    "S OuterVoltage" "S InnerVoltage" "S QuasiFermiPotential" "S DisplacementCurrent" "S eCurrent"
    "S hCurrent" "S TotalCurrent" "S Charge" "D OuterVoltage" "D InnerVoltage"
    "D QuasiFermiPotential" "D DisplacementCurrent" "D eCurrent" "D hCurrent" "D TotalCurrent"
    "D Charge" "G OuterVoltage" "G InnerVoltage" "G QuasiFermiPotential" "G DisplacementCurrent"
    "G eCurrent" "G hCurrent" "G TotalCurrent" "G Charge" ]
  functions = [
    Time
    OuterVoltage InnerVoltage QuasiFermiPotential DisplacementCurrent eCurrent
    hCurrent TotalCurrent Charge OuterVoltage InnerVoltage
    QuasiFermiPotential DisplacementCurrent eCurrent hCurrent TotalCurrent
    Charge OuterVoltage InnerVoltage QuasiFermiPotential DisplacementCurrent
    eCurrent hCurrent TotalCurrent Charge ]
}

Data {
      0.00000000000000E+00
      0.00000000000000E+00   0.00000000000000E+00   0.00000000000000E+00   0.00000000000000E+00  -6.11663267403599E-19
     -1.01434278572899E-33  -6.11663267403600E-19   5.95572343481426E-16   0.00000000000000E+00   0.00000000000000E+00
      0.00000000000000E+00   0.00000000000000E+00  -6.10671171508705E-19  -9.48695752254019E-34  -6.10671171508706E-19
      7.68829734311611E-16  -5.00000000000000E-01  -5.00000000000000E-01   0.00000000000000E+00   0.00000000000000E+00
      0.00000000000000E+00   0.00000000000000E+00   0.00000000000000E+00  -3.97621070927382E-16
      0.00000000000000E+00
      0.00000000000000E+00   0.00000000000000E+00   0.00000000000000E+00   0.00000000000000E+00  -2.44665307292928E-18
     -4.54584911760902E-30  -2.44665307293382E-18   5.95572342741663E-16   0.00000000000000E+00   0.00000000000000E+00
      0.00000000000000E+00   0.00000000000000E+00  -1.83201351700796E-18  -4.56808209604167E-30  -1.83201351701253E-18
      7.68829733501566E-16  -5.00000000000000E-01  -5.00000000000000E-01   0.00000000000000E+00   0.00000000000000E+00
      0.00000000000000E+00   0.00000000000000E+00   0.00000000000000E+00  -3.97621070965407E-16
      1.00000000000000E-03
      0.00000000000000E+00   0.00000000000000E+00   0.00000000000000E+00   0.00000000000000E+00  -2.00470400108083E-23
     -6.05870563327705E-24  -2.61057456440854E-23   5.95570541936427E-16   1.00000000000000E-03   1.00000000000000E-03
      0.00000000000000E+00   0.00000000000000E+00   8.72120960162669E-14   1.44618830020363E-21   8.72120974624552E-14
      7.69448664043979E-16  -5.00000000000000E-01  -5.00000000000000E-01   0.00000000000000E+00   0.00000000000000E+00
      0.00000000000000E+00   0.00000000000000E+00   0.00000000000000E+00  -3.97788429816372E-16
      2.18666666666667E-03
      0.00000000000000E+00   0.00000000000000E+00   0.00000000000000E+00   0.00000000000000E+00  -9.17503910370370E-18
     -1.30683956613316E-23  -9.17505217209936E-18   5.95568458772646E-16   2.18666666666667E-03   2.18666666666667E-03
      0.00000000000000E+00   0.00000000000000E+00   4.26984572567659E-18   3.09229353972576E-21   4.27293801921631E-18
      7.70183086418709E-16  -5.00000000000000E-01  -5.00000000000000E-01   0.00000000000000E+00   0.00000000000000E+00
      0.00000000000000E+00   0.00000000000000E+00   0.00000000000000E+00  -3.97986945357980E-16
      3.61066666666667E-03
      0.00000000000000E+00   0.00000000000000E+00   0.00000000000000E+00   0.00000000000000E+00   7.33995217932965E-18
     -2.12976322668404E-23   7.33993088169738E-18   5.95566013606656E-16   3.61066666666667E-03   3.61066666666667E-03
      0.00000000000000E+00   0.00000000000000E+00  -5.48372045480335E-18   4.97171074947636E-21  -5.47874874405387E-18
      7.71064310310470E-16  -5.00000000000000E-01  -5.00000000000000E-01   0.00000000000000E+00   0.00000000000000E+00
      0.00000000000000E+00   0.00000000000000E+00   0.00000000000000E+00  -3.98225084456198E-16
      5.31946666666667E-03
      0.00000000000000E+00   0.00000000000000E+00   0.00000000000000E+00   0.00000000000000E+00  -3.67012221179963E-18
     -3.09073788173962E-23  -3.67015311917844E-18   5.95563158824390E-16   5.31946666666667E-03   5.31946666666667E-03
      0.00000000000000E+00   0.00000000000000E+00  -6.07509516037659E-19   7.09628915359441E-21  -6.00413226884065E-19
      7.72121661043954E-16  -5.00000000000000E-01  -5.00000000000000E-01   0.00000000000000E+00   0.00000000000000E+00
      0.00000000000000E+00   0.00000000000000E+00   0.00000000000000E+00  -3.98510735288166E-16
      7.37002666666667E-03
      0.00000000000000E+00   0.00000000000000E+00   0.00000000000000E+00   0.00000000000000E+00  -5.50519106279820E-18
     -4.20873406639377E-23  -5.50523315013887E-18   5.95559838356464E-16   7.37002666666667E-03   7.37002666666667E-03
      0.00000000000000E+00   0.00000000000000E+00   3.04219165210294E-18   9.46952984711499E-21   3.05166118195005E-18
      7.73390303882738E-16  -5.00000000000000E-01  -5.00000000000000E-01   0.00000000000000E+00   0.00000000000000E+00
      0.00000000000000E+00   0.00000000000000E+00   0.00000000000000E+00  -3.98853365157764E-16
      9.83069866666667E-03
      0.00000000000000E+00   0.00000000000000E+00   0.00000000000000E+00   0.00000000000000E+00   6.72827620018563E-18
     -5.50397066030043E-23   6.72822116047903E-18   5.95555992528193E-16   9.83069866666667E-03   9.83069866666667E-03
      0.00000000000000E+00   0.00000000000000E+00  -9.10603930400280E-18   1.20828893926534E-20  -9.09395641461014E-18
      7.74912407661708E-16  -5.00000000000000E-01  -5.00000000000000E-01   0.00000000000000E+00   0.00000000000000E+00
      0.00000000000000E+00   0.00000000000000E+00   0.00000000000000E+00  -3.99264325956090E-16
      1.27835050666667E-02
      0.00000000000000E+00   0.00000000000000E+00   0.00000000000000E+00   0.00000000000000E+00  -1.03987659330788E-17
     -6.99401418865323E-23  -1.03988358732207E-17   5.95551569649469E-16   1.27835050666667E-02   1.27835050666667E-02
      0.00000000000000E+00   0.00000000000000E+00  -8.48377401608932E-18   1.49117676060369E-20  -8.46886224848328E-18
      7.76738542470296E-16  -5.00000000000000E-01  -5.00000000000000E-01   0.00000000000000E+00   0.00000000000000E+00
      0.00000000000000E+00   0.00000000000000E+00   0.00000000000000E+00  -3.99757210903604E-16
      1.62875019946667E-02
      0.00000000000000E+00   0.00000000000000E+00   0.00000000000000E+00   0.00000000000000E+00   5.50491481536992E-18
     -8.68673613922712E-23   5.50482794800853E-18   5.95546546954892E-16   1.62875019946667E-02   1.62875019946667E-02
      0.00000000000000E+00   0.00000000000000E+00  -1.20618243028352E-18   1.78804875580345E-20  -1.18830194272549E-18
      7.78904962122386E-16  -5.00000000000000E-01  -5.00000000000000E-01   0.00000000000000E+00   0.00000000000000E+00
      0.00000000000000E+00   0.00000000000000E+00   0.00000000000000E+00  -4.00341803069551E-16
      2.04455783492267E-02
      0.00000000000000E+00   0.00000000000000E+00   0.00000000000000E+00   0.00000000000000E+00   2.44647264111809E-18
     -1.06045076813098E-22   2.44636659604127E-18   5.95540858791087E-16   2.04455783492267E-02   2.04455783492267E-02
      0.00000000000000E+00   0.00000000000000E+00  -9.04860070845664E-18   2.09256536583573E-20  -9.02767505479828E-18
      7.81474906152258E-16  -5.00000000000000E-01  -5.00000000000000E-01   0.00000000000000E+00   0.00000000000000E+00
      0.00000000000000E+00   0.00000000000000E+00   0.00000000000000E+00  -4.01035179324832E-16
      2.53798289566379E-02
      0.00000000000000E+00   0.00000000000000E+00   0.00000000000000E+00   0.00000000000000E+00   5.50492524421065E-18
     -1.27771429955158E-22   5.50479747278070E-18   5.95534417674600E-16   2.53798289566379E-02   2.53798289566379E-02
      0.00000000000000E+00   0.00000000000000E+00   4.21881872900232E-18   2.39659993050872E-20   4.24278472830741E-18
      7.84523280681290E-16  -5.00000000000000E-01  -5.00000000000000E-01   0.00000000000000E+00   0.00000000000000E+00
      0.00000000000000E+00   0.00000000000000E+00   0.00000000000000E+00  -4.01857636622243E-16
      3.12351396774325E-02
      0.00000000000000E+00   0.00000000000000E+00   0.00000000000000E+00   0.00000000000000E+00   5.50494267371334E-18
     -1.52475281699554E-22   5.50479019843164E-18   5.95527097742069E-16   3.12351396774325E-02   3.12351396774325E-02
      0.00000000000000E+00   0.00000000000000E+00  -8.39117455753977E-18   2.69061965374119E-20  -8.36426836100236E-18
      7.88138774227758E-16  -5.00000000000000E-01  -5.00000000000000E-01   0.00000000000000E+00   0.00000000000000E+00
      0.00000000000000E+00   0.00000000000000E+00   0.00000000000000E+00  -4.02833320593298E-16
      3.81834417327754E-02
      0.00000000000000E+00   0.00000000000000E+00   0.00000000000000E+00   0.00000000000000E+00   2.44643791556370E-18
     -1.80814253074997E-22   2.44625710131063E-18   5.95518705959075E-16   3.81834417327754E-02   3.81834417327754E-02
      0.00000000000000E+00   0.00000000000000E+00   8.97151860768045E-18   2.96445795027503E-20   9.00116318718320E-18
      7.92426340520140E-16  -5.00000000000000E-01  -5.00000000000000E-01   0.00000000000000E+00   0.00000000000000E+00
      0.00000000000000E+00   0.00000000000000E+00   0.00000000000000E+00  -4.03990989352668E-16
      4.64287601717824E-02
      0.00000000000000E+00   0.00000000000000E+00   0.00000000000000E+00   0.00000000000000E+00  -1.83556038904772E-18
     -2.13876588768096E-22  -1.83577426563649E-18   5.95508922872535E-16   4.64287601717824E-02   4.64287601717824E-02
      0.00000000000000E+00   0.00000000000000E+00  -1.01007492020661E-17   3.20847921555373E-20  -1.00686644099106E-17
      7.97510093157377E-16  -5.00000000000000E-01  -5.00000000000000E-01   0.00000000000000E+00   0.00000000000000E+00
      0.00000000000000E+00   0.00000000000000E+00   0.00000000000000E+00  -4.05364966565023E-16
      5.62132047194040E-02
      0.00000000000000E+00   0.00000000000000E+00   0.00000000000000E+00   0.00000000000000E+00   4.89335652296302E-18
     -2.53449572332696E-22   4.89310307339068E-18   5.95497224223306E-16   5.62132047194040E-02   5.62132047194040E-02
      0.00000000000000E+00   0.00000000000000E+00  -4.12800132368806E-18   3.41500884571000E-20  -4.09385123523096E-18
      8.03536696222539E-16  -5.00000000000000E-01  -5.00000000000000E-01   0.00000000000000E+00   0.00000000000000E+00
      0.00000000000000E+00   0.00000000000000E+00   0.00000000000000E+00  -4.06996288757469E-16
      6.78240789159150E-02
      0.00000000000000E+00   0.00000000000000E+00   0.00000000000000E+00   0.00000000000000E+00  -3.67086922438386E-18
     -3.02564766701854E-22  -3.67117178915056E-18   5.95482721934251E-16   6.78240789159150E-02   6.78240789159150E-02
      0.00000000000000E+00   0.00000000000000E+00   6.03730945651023E-19   3.57973105430149E-20   6.39528256194038E-19
      8.10679267566969E-16  -5.00000000000000E-01  -5.00000000000000E-01   0.00000000000000E+00   0.00000000000000E+00
      0.00000000000000E+00   0.00000000000000E+00   0.00000000000000E+00  -4.08934187060737E-16
      8.14475046398212E-02
      0.00000000000000E+00   0.00000000000000E+00   0.00000000000000E+00   0.00000000000000E+00  -3.05922069950922E-18
     -3.65604722288775E-22  -3.05958630423151E-18   5.95464136789573E-16   8.14475046398212E-02   8.14475046398212E-02
      0.00000000000000E+00   0.00000000000000E+00  -5.63201974329914E-19   3.70156283591941E-20  -5.26186345970720E-19
      8.19046865851105E-16  -5.00000000000000E-01  -5.00000000000000E-01   0.00000000000000E+00   0.00000000000000E+00
      0.00000000000000E+00   0.00000000000000E+00   0.00000000000000E+00  -4.11212044343119E-16
      9.74323241558711E-02
      0.00000000000000E+00   0.00000000000000E+00   0.00000000000000E+00   0.00000000000000E+00   6.11723775641094E-18
     -4.50706468714075E-22   6.11678704994223E-18   5.95439098925539E-16   9.74323241558711E-02   9.74323241558711E-02
      0.00000000000000E+00   0.00000000000000E+00   7.54532034388288E-18   3.78601644662162E-20   7.58318050834910E-18
      8.28846017199883E-16  -5.00000000000000E-01  -5.00000000000000E-01   0.00000000000000E+00   0.00000000000000E+00
      0.00000000000000E+00   0.00000000000000E+00   0.00000000000000E+00  -4.13892124248574E-16
      1.16187845721370E-01
      0.00000000000000E+00   0.00000000000000E+00   0.00000000000000E+00   0.00000000000000E+00  -6.11849343081975E-18
     -5.71892822593986E-22  -6.11906532364234E-18   5.95403545092082E-16   1.16187845721370E-01   1.16187845721370E-01
      0.00000000000000E+00   0.00000000000000E+00   8.05221731330460E-18   3.84122931962120E-20   8.09062960650082E-18
      8.40316167780722E-16  -5.00000000000000E-01  -5.00000000000000E-01   0.00000000000000E+00   0.00000000000000E+00
      0.00000000000000E+00   0.00000000000000E+00   0.00000000000000E+00  -4.17049860471421E-16
      1.38194324358221E-01
      0.00000000000000E+00   0.00000000000000E+00   0.00000000000000E+00   0.00000000000000E+00  -1.83604388428294E-18
     -7.54165125256329E-22  -1.83679804940819E-18   5.95350286580161E-16   1.38194324358221E-01   1.38194324358221E-01
      0.00000000000000E+00   0.00000000000000E+00  -5.16080877327846E-19   3.87625029656749E-20  -4.77318374362171E-19
      8.53733517969111E-16  -5.00000000000000E-01  -5.00000000000000E-01   0.00000000000000E+00   0.00000000000000E+00
      0.00000000000000E+00   0.00000000000000E+00   0.00000000000000E+00  -4.20778179146278E-16
      1.64015259292127E-01
      0.00000000000000E+00   0.00000000000000E+00   0.00000000000000E+00   0.00000000000000E+00   6.11856661623724E-18
     -1.04411674925707E-21   6.11752249948798E-18   5.95266086340884E-16   1.64015259292127E-01   1.64015259292127E-01
      0.00000000000000E+00   0.00000000000000E+00  -1.04237662381859E-18   3.89932122218950E-20  -1.00338341159669E-18
      8.69413834281613E-16  -5.00000000000000E-01  -5.00000000000000E-01   0.00000000000000E+00   0.00000000000000E+00
      0.00000000000000E+00   0.00000000000000E+00   0.00000000000000E+00  -4.25194769250121E-16
      1.94311822947910E-01
      0.00000000000000E+00   0.00000000000000E+00   0.00000000000000E+00   0.00000000000000E+00   4.89558468247522E-18
     -1.53290777271141E-21   4.89405177470251E-18   5.95125549812672E-16   1.94311822947910E-01   1.94311822947910E-01
      0.00000000000000E+00   0.00000000000000E+00  -4.28122414815695E-18   3.91670449062416E-20  -4.24205710325071E-18
      8.87712298339385E-16  -5.00000000000000E-01  -5.00000000000000E-01   0.00000000000000E+00   0.00000000000000E+00
      0.00000000000000E+00   0.00000000000000E+00   0.00000000000000E+00  -4.30455334974619E-16
      2.29859790970696E-01
      0.00000000000000E+00   0.00000000000000E+00   0.00000000000000E+00   0.00000000000000E+00   1.83592343897777E-18
     -2.40576643892470E-21   1.83351767253885E-18   5.94878817947152E-16   2.29859790970696E-01   2.29859790970696E-01
      0.00000000000000E+00   0.00000000000000E+00   1.82637918909462E-18   3.93234270977265E-20   1.86570261619234E-18
      9.09016853070882E-16  -5.00000000000000E-01  -5.00000000000000E-01   0.00000000000000E+00   0.00000000000000E+00
      0.00000000000000E+00   0.00000000000000E+00   0.00000000000000E+00  -4.36778145962225E-16
      2.71095433877127E-01
      0.00000000000000E+00   0.00000000000000E+00   0.00000000000000E+00   0.00000000000000E+00   1.83675584200250E-18
     -4.01056519214986E-21   1.83274527681035E-18   5.94438612389013E-16   2.71095433877127E-01   2.71095433877127E-01
      0.00000000000000E+00   0.00000000000000E+00   1.41909887659642E-18   3.94806480225576E-20   1.45857952461898E-18
      9.33454383608003E-16  -5.00000000000000E-01  -5.00000000000000E-01   0.00000000000000E+00   0.00000000000000E+00
      0.00000000000000E+00   0.00000000000000E+00   0.00000000000000E+00  -4.44391344676051E-16
      3.18928779648587E-01
      0.00000000000000E+00   0.00000000000000E+00   0.00000000000000E+00   0.00000000000000E+00  -1.22787416991218E-18
     -6.99127587183217E-21  -1.23486544578401E-18   5.93663267657236E-16   3.18928779648587E-01   3.18928779648587E-01
      0.00000000000000E+00   0.00000000000000E+00   7.36251523193207E-18   3.96461257817785E-20   7.40216135771385E-18
      9.61356167389276E-16  -5.00000000000000E-01  -5.00000000000000E-01   0.00000000000000E+00   0.00000000000000E+00
      0.00000000000000E+00   0.00000000000000E+00   0.00000000000000E+00  -4.53696811692292E-16
      3.74415460743480E-01
      0.00000000000000E+00   0.00000000000000E+00   0.00000000000000E+00   0.00000000000000E+00  -1.65882762877708E-17
     -1.25616409453838E-20  -1.66008379287162E-17   5.92341213100881E-16   3.74415460743480E-01   3.74415460743480E-01
      0.00000000000000E+00   0.00000000000000E+00   2.79321704051029E-17   3.98206986763390E-20   2.79719911037793E-17
      9.93019955359650E-16  -5.00000000000000E-01  -5.00000000000000E-01   0.00000000000000E+00   0.00000000000000E+00
      0.00000000000000E+00   0.00000000000000E+00   0.00000000000000E+00  -4.65242263444374E-16
      4.38780010813557E-01
      0.00000000000000E+00   0.00000000000000E+00   0.00000000000000E+00   0.00000000000000E+00  -2.83406266233842E-17
     -2.28453853619076E-20  -2.83634720087461E-17   5.90239929548037E-16   4.38780010813557E-01   4.38780010813557E-01
      0.00000000000000E+00   0.00000000000000E+00   1.33936484243019E-17   4.00024029257902E-20   1.34336508272277E-17
      1.02872358248828E-15  -5.00000000000000E-01  -5.00000000000000E-01   0.00000000000000E+00   0.00000000000000E+00
      0.00000000000000E+00   0.00000000000000E+00   0.00000000000000E+00  -4.79638236291742E-16
      5.13442888894846E-01
      0.00000000000000E+00   0.00000000000000E+00   0.00000000000000E+00   0.00000000000000E+00  -3.27784869206676E-17
     -3.99999045028838E-20  -3.28184868251705E-17   5.87413536312756E-16   5.13442888894846E-01   5.13442888894846E-01
      0.00000000000000E+00   0.00000000000000E+00   4.91327807640966E-17   4.01888264948017E-20   4.91729695905914E-17
      1.06889987478998E-15  -5.00000000000000E-01  -5.00000000000000E-01   0.00000000000000E+00   0.00000000000000E+00
      0.00000000000000E+00   0.00000000000000E+00   0.00000000000000E+00  -4.97021776269430E-16
      6.00051827469141E-01
      0.00000000000000E+00   0.00000000000000E+00   0.00000000000000E+00   0.00000000000000E+00  -5.40535497145952E-17
     -6.73009659990494E-20  -5.41208506805942E-17   5.83988198688371E-16   6.00051827469141E-01   6.00051827469141E-01
      0.00000000000000E+00   0.00000000000000E+00   5.15363898623859E-17   4.03728777219783E-20   5.15767627401079E-17
      1.11358844698205E-15  -5.00000000000000E-01  -5.00000000000000E-01   0.00000000000000E+00   0.00000000000000E+00
      0.00000000000000E+00   0.00000000000000E+00   0.00000000000000E+00  -5.17442132568922E-16
      7.01672982062981E-01
      0.00000000000000E+00   0.00000000000000E+00   0.00000000000000E+00   0.00000000000000E+00  -1.30218461635138E-16
     -1.34650885954018E-19  -1.30353112521092E-16   5.78323834642546E-16   7.01672982062981E-01   7.01672982062981E-01
      0.00000000000000E+00   0.00000000000000E+00   1.20644877833776E-16   4.05354859764980E-20   1.20685413319752E-16
      1.16115996106196E-15  -5.00000000000000E-01  -5.00000000000000E-01   0.00000000000000E+00   0.00000000000000E+00
      0.00000000000000E+00   0.00000000000000E+00   0.00000000000000E+00  -5.44280065372569E-16
      8.19553521391834E-01
      0.00000000000000E+00   0.00000000000000E+00   0.00000000000000E+00   0.00000000000000E+00  -2.85818399734263E-16
     -3.38066400882534E-19  -2.86156466135145E-16   5.69358342160954E-16   8.19553521391834E-01   8.19553521391834E-01
      0.00000000000000E+00   0.00000000000000E+00   2.90239369809617E-16   4.06704552523695E-20   2.90280040264870E-16
      1.21029870559185E-15  -5.00000000000000E-01  -5.00000000000000E-01   0.00000000000000E+00   0.00000000000000E+00
      0.00000000000000E+00   0.00000000000000E+00   0.00000000000000E+00  -5.79595103352872E-16
      9.56294947013305E-01
      0.00000000000000E+00   0.00000000000000E+00   0.00000000000000E+00   0.00000000000000E+00  -4.35904450589011E-16
     -5.47378752260695E-19  -4.36451829341272E-16   5.64237775274781E-16   9.56294947013305E-01   9.56294947013305E-01
      0.00000000000000E+00   0.00000000000000E+00   4.52030717150540E-16   4.08160716912265E-20   4.52071533222232E-16
      1.26780099593358E-15  -5.00000000000000E-01  -5.00000000000000E-01   0.00000000000000E+00   0.00000000000000E+00
      0.00000000000000E+00   0.00000000000000E+00   0.00000000000000E+00  -6.11314184390611E-16
      1.00000000000000E+00
      0.00000000000000E+00   0.00000000000000E+00   0.00000000000000E+00   0.00000000000000E+00  -4.52837447969479E-16
     -5.75434380437555E-19  -4.53412882349916E-16   5.63694941130463E-16   1.00000000000000E+00   1.00000000000000E+00
      0.00000000000000E+00   0.00000000000000E+00   4.65718762744856E-16   4.08624733376252E-20   4.65759625218193E-16
      1.28651823392889E-15  -5.00000000000000E-01  -5.00000000000000E-01   0.00000000000000E+00   0.00000000000000E+00
      0.00000000000000E+00   0.00000000000000E+00   0.00000000000000E+00  -6.19556349223099E-16
      0.00000000000000E+00
      0.00000000000000E+00   0.00000000000000E+00   0.00000000000000E+00   0.00000000000000E+00  -4.64333054963925E-16
     -5.75434191768901E-19  -4.64908489155694E-16   5.63694944696936E-16   1.00000000000000E+00   1.00000000000000E+00
      0.00000000000000E+00   0.00000000000000E+00   4.62721861893693E-16   4.08624733462270E-20   4.62762724367040E-16
      1.28651823606348E-15  -5.00000000000000E-01  -5.00000000000000E-01   0.00000000000000E+00   0.00000000000000E+00
      0.00000000000000E+00   0.00000000000000E+00   0.00000000000000E+00  -6.19556343030891E-16
      1.00000000000000E-03
      0.00000000000000E+00   0.00000000000000E+00   0.00000000000000E+00   0.00000000000000E+00  -4.56017011246636E-16
     -5.74290359707295E-19  -4.56591301606343E-16   5.63611475431148E-16   1.00000000000000E+00   1.00000000000000E+00
      0.00000000000000E+00   0.00000000000000E+00   4.48166595843411E-16   4.08625210348271E-20   4.48207458364446E-16
      1.28619666108922E-15  -4.98000000000000E-01  -4.98000000000000E-01   0.00000000000000E+00   0.00000000000000E+00
      0.00000000000000E+00   0.00000000000000E+00   0.00000000000000E+00  -6.17530180414209E-16
      2.17333333333333E-03
      0.00000000000000E+00   0.00000000000000E+00   0.00000000000000E+00   0.00000000000000E+00  -4.47699401642502E-16
     -5.72973914832862E-19  -4.48272375557335E-16   5.63512949691676E-16   1.00000000000000E+00   1.00000000000000E+00
      0.00000000000000E+00   0.00000000000000E+00   4.59727144432308E-16   4.08625759243927E-20   4.59768007008233E-16
      1.28581875704690E-15  -4.95653333333333E-01  -4.95653333333333E-01   0.00000000000000E+00   0.00000000000000E+00
      0.00000000000000E+00   0.00000000000000E+00   0.00000000000000E+00  -6.15156020274213E-16
      3.56568888888889E-03
      0.00000000000000E+00   0.00000000000000E+00   0.00000000000000E+00   0.00000000000000E+00  -4.50874218038134E-16
     -5.71439097517679E-19  -4.51445657135652E-16   5.63395365826540E-16   1.00000000000000E+00   1.00000000000000E+00
      0.00000000000000E+00   0.00000000000000E+00   4.46456818102895E-16   4.08626399511710E-20   4.46497680742846E-16
      1.28536957477012E-15  -4.92868622222222E-01  -4.92868622222222E-01   0.00000000000000E+00   0.00000000000000E+00
      0.00000000000000E+00   0.00000000000000E+00   0.00000000000000E+00  -6.12342939811547E-16
      5.21795081481481E-03
      0.00000000000000E+00   0.00000000000000E+00   0.00000000000000E+00   0.00000000000000E+00  -4.50853052638855E-16
     -5.69659087454270E-19  -4.51422711726309E-16   5.63254834141016E-16   1.00000000000000E+00   1.00000000000000E+00
      0.00000000000000E+00   0.00000000000000E+00   4.48170917147838E-16   4.08627142281306E-20   4.48211779862066E-16
      1.28483546461485E-15  -4.89564098370370E-01  -4.89564098370370E-01   0.00000000000000E+00   0.00000000000000E+00
      0.00000000000000E+00   0.00000000000000E+00   0.00000000000000E+00  -6.09010917949285E-16
      7.17863496691358E-03
      0.00000000000000E+00   0.00000000000000E+00   0.00000000000000E+00   0.00000000000000E+00  -4.50828548379212E-16
     -5.67604388824215E-19  -4.51396152768036E-16   5.63086661822083E-16   1.00000000000000E+00   1.00000000000000E+00
      0.00000000000000E+00   0.00000000000000E+00   4.46032201857724E-16   4.08627999791631E-20   4.46073064657704E-16
      1.28420011829145E-15  -4.85642730066173E-01  -4.85642730066173E-01   0.00000000000000E+00   0.00000000000000E+00
      0.00000000000000E+00   0.00000000000000E+00   0.00000000000000E+00  -6.05065722027537E-16
      9.50531349407078E-03
      0.00000000000000E+00   0.00000000000000E+00   0.00000000000000E+00   0.00000000000000E+00  -4.59100490374762E-16
     -5.65246209305923E-19  -4.59665736584068E-16   5.62885112759687E-16   1.00000000000000E+00   1.00000000000000E+00
      0.00000000000000E+00   0.00000000000000E+00   4.49459049197132E-16   4.08628983815670E-20   4.49499912095514E-16
      1.28344398895630E-15  -4.80989373011858E-01  -4.80989373011858E-01   0.00000000000000E+00   0.00000000000000E+00
      0.00000000000000E+00   0.00000000000000E+00   0.00000000000000E+00  -6.00396685497536E-16
      1.22663053462973E-02
      0.00000000000000E+00   0.00000000000000E+00   0.00000000000000E+00   0.00000000000000E+00  -4.69282469650790E-16
     -5.62558991700001E-19  -4.69845028642490E-16   5.62643141315279E-16   1.00000000000000E+00   1.00000000000000E+00
      0.00000000000000E+00   0.00000000000000E+00   4.54598320943119E-16   4.08630104432817E-20   4.54639183953562E-16
      1.28254360034621E-15  -4.75467389307405E-01  -4.75467389307405E-01   0.00000000000000E+00   0.00000000000000E+00
      0.00000000000000E+00   0.00000000000000E+00   0.00000000000000E+00  -5.94874171864904E-16
      1.55426823442728E-02
      0.00000000000000E+00   0.00000000000000E+00   0.00000000000000E+00   0.00000000000000E+00  -4.54561687885107E-16
     -5.59524604978577E-19  -4.55121212490085E-16   5.62352039204468E-16   1.00000000000000E+00   1.00000000000000E+00
      0.00000000000000E+00   0.00000000000000E+00   4.52031951559712E-16   4.08631367964352E-20   4.52072814696508E-16
      1.28147068432022E-15  -4.68914635311454E-01  -4.68914635311454E-01   0.00000000000000E+00   0.00000000000000E+00
      0.00000000000000E+00   0.00000000000000E+00   0.00000000000000E+00  -5.88346831838106E-16
      1.94306497152037E-02
      0.00000000000000E+00   0.00000000000000E+00   0.00000000000000E+00   0.00000000000000E+00  -4.58350180405775E-16
     -5.56137990982824E-19  -4.58906318396758E-16   5.62000980451060E-16   1.00000000000000E+00   1.00000000000000E+00
      0.00000000000000E+00   0.00000000000000E+00   4.70869546465321E-16   4.08632774109782E-20   4.70910409742732E-16
      1.28019110656767E-15  -4.61138700569592E-01  -4.61138700569592E-01   0.00000000000000E+00   0.00000000000000E+00
      0.00000000000000E+00   0.00000000000000E+00   0.00000000000000E+00  -5.80638717952513E-16
      2.40443709953751E-02
      0.00000000000000E+00   0.00000000000000E+00   0.00000000000000E+00   0.00000000000000E+00  -4.62133566636687E-16
     -5.52417341910576E-19  -4.62685983978597E-16   5.61576376758078E-16   1.00000000000000E+00   1.00000000000000E+00
      0.00000000000000E+00   0.00000000000000E+00   4.56744889081402E-16   4.08634310753140E-20   4.56785752512477E-16
      1.27866348903250E-15  -4.51911258009250E-01  -4.51911258009250E-01   0.00000000000000E+00   0.00000000000000E+00
      0.00000000000000E+00   0.00000000000000E+00   0.00000000000000E+00  -5.71546504450425E-16
      2.95193202478451E-02
      0.00000000000000E+00   0.00000000000000E+00   0.00000000000000E+00   0.00000000000000E+00  -4.63359628742193E-16
     -5.48418188831737E-19  -4.63908046931024E-16   5.61061011683326E-16   1.00000000000000E+00   1.00000000000000E+00
      0.00000000000000E+00   0.00000000000000E+00   4.47757078240853E-16   4.08635946572918E-20   4.47797941835510E-16
      1.27683746439370E-15  -4.40961359504310E-01  -4.40961359504310E-01   0.00000000000000E+00   0.00000000000000E+00
      0.00000000000000E+00   0.00000000000000E+00   0.00000000000000E+00  -5.60837054492817E-16
      3.60162600274429E-02
      0.00000000000000E+00   0.00000000000000E+00   0.00000000000000E+00   0.00000000000000E+00  -4.64583070056709E-16
     -5.44260051047122E-19  -4.65127330107756E-16   5.60432715777234E-16   1.00000000000000E+00   1.00000000000000E+00
      0.00000000000000E+00   0.00000000000000E+00   4.64879794384711E-16   4.08637617134876E-20   4.64920658146425E-16
      1.27465137843053E-15  -4.27967479945114E-01  -4.27967479945114E-01   0.00000000000000E+00   0.00000000000000E+00
      0.00000000000000E+00   0.00000000000000E+00   0.00000000000000E+00  -5.48246041397454E-16
      4.36393360355042E-02
      0.00000000000000E+00   0.00000000000000E+00   0.00000000000000E+00   0.00000000000000E+00  -4.54960471259697E-16
     -5.40201966710485E-19  -4.55500673226407E-16   5.59671368559064E-16   1.00000000000000E+00   1.00000000000000E+00
      0.00000000000000E+00   0.00000000000000E+00   4.67874890960826E-16   4.08639190949698E-20   4.67915754879921E-16
      1.27205904810369E-15  -4.12721327928992E-01  -4.12721327928992E-01   0.00000000000000E+00   0.00000000000000E+00
      0.00000000000000E+00   0.00000000000000E+00   0.00000000000000E+00  -5.33642939982534E-16
      5.25837452182962E-02
      0.00000000000000E+00   0.00000000000000E+00   0.00000000000000E+00   0.00000000000000E+00  -4.56829180846829E-16
     -5.36614088088039E-19  -4.57365794934917E-16   5.58742527432862E-16   1.00000000000000E+00   1.00000000000000E+00