DF-ISE text

Info {
  version   = 1.0
  type      = xyplot
  datasets  = [
    "time"
    "S OuterVoltage" "S InnerVoltage" "S QuasiFermiPotential" "S DisplacementCurrent" "S eCurrent"
    "S hCurrent" "S TotalCurrent" "S Charge" "D OuterVoltage" "D InnerVoltage"
    "D QuasiFermiPotential" "D DisplacementCurrent" "D eCurrent" "D hCurrent" "D TotalCurrent"
    "D Charge" "G OuterVoltage" "G InnerVoltage" "G QuasiFermiPotential" "G DisplacementCurrent"
    "G eCurrent" "G hCurrent" "G TotalCurrent" "G Charge" ]
  functions = [
    Time
    OuterVoltage InnerVoltage QuasiFermiPotential DisplacementCurrent eCurrent
    hCurrent TotalCurrent Charge OuterVoltage InnerVoltage
    QuasiFermiPotential DisplacementCurrent eCurrent hCurrent TotalCurrent
    Charge OuterVoltage InnerVoltage QuasiFermiPotential DisplacementCurrent
    eCurrent hCurrent TotalCurrent Charge ]
}

Data {
      0.00000000000000E+00
      0.00000000000000E+00   0.00000000000000E+00   0.00000000000000E+00   0.00000000000000E+00  -6.34895812263726E-18
      1.54479922239112E-35  -6.34895812263726E-18   8.28436367953196E-16   0.00000000000000E+00   0.00000000000000E+00
      0.00000000000000E+00   0.00000000000000E+00  -4.42394126347460E-19   2.55974939916010E-35  -4.42394126347460E-19
      1.01293588476645E-15  -5.00000000000000E-01  -5.00000000000000E-01   0.00000000000000E+00   0.00000000000000E+00
      0.00000000000000E+00   0.00000000000000E+00   0.00000000000000E+00  -3.94126216211804E-16
      0.00000000000000E+00
      0.00000000000000E+00   0.00000000000000E+00   0.00000000000000E+00   0.00000000000000E+00   2.17496307706521E-17
     -1.09505492831623E-30   2.17496307706510E-17   8.28436360889352E-16   0.00000000000000E+00   0.00000000000000E+00
      0.00000000000000E+00   0.00000000000000E+00   8.07179801549426E-18  -1.09500161845198E-30   8.07179801549317E-18
      1.01293587690165E-15  -5.00000000000000E-01  -5.00000000000000E-01   0.00000000000000E+00   0.00000000000000E+00
      0.00000000000000E+00   0.00000000000000E+00   0.00000000000000E+00  -3.94126216222900E-16
      1.00000000000000E-03
      0.00000000000000E+00   0.00000000000000E+00   0.00000000000000E+00   0.00000000000000E+00  -6.76524751844393E-18
     -4.89051027205446E-23  -6.76529642354665E-18   8.28324928158573E-16   1.00000000000000E-03   1.00000000000000E-03
      0.00000000000000E+00   0.00000000000000E+00   1.43514472803509E-12   1.57221379717764E-22   1.43514472819231E-12
      1.01347898524322E-15  -5.00000000000000E-01  -5.00000000000000E-01   0.00000000000000E+00   0.00000000000000E+00
      0.00000000000000E+00   0.00000000000000E+00   0.00000000000000E+00  -3.94469394721000E-16
      2.18666666666667E-03
      0.00000000000000E+00   0.00000000000000E+00   0.00000000000000E+00   0.00000000000000E+00  -6.19397554791760E-18
     -1.06542461399242E-22  -6.19408209037900E-18   8.28194836316323E-16   2.18666666666667E-03   2.18666666666667E-03
      0.00000000000000E+00   0.00000000000000E+00   1.58619870592603E-17   3.38732862150038E-22   1.58623257921225E-17
      1.01412533721347E-15  -5.00000000000000E-01  -5.00000000000000E-01   0.00000000000000E+00   0.00000000000000E+00
      0.00000000000000E+00   0.00000000000000E+00   0.00000000000000E+00  -3.94873243285023E-16
      3.59484444444444E-03
      0.00000000000000E+00   0.00000000000000E+00   0.00000000000000E+00   0.00000000000000E+00  -9.05108284987840E-18
     -1.74360766434848E-22  -9.05125721064484E-18   8.28043444399487E-16   3.59484444444444E-03   3.59484444444444E-03
      0.00000000000000E+00   0.00000000000000E+00   1.79579615322227E-17   5.47147617062290E-22   1.79585086798397E-17
      1.01489491870705E-15  -5.00000000000000E-01  -5.00000000000000E-01   0.00000000000000E+00   0.00000000000000E+00
      0.00000000000000E+00   0.00000000000000E+00   0.00000000000000E+00  -3.95347755728427E-16
      5.26588207407407E-03
      0.00000000000000E+00   0.00000000000000E+00   0.00000000000000E+00   0.00000000000000E+00   3.58845353337966E-18
     -2.53993772944419E-22   3.58819953960672E-18   8.27867939669612E-16   5.26588207407407E-03   5.26588207407407E-03
      0.00000000000000E+00   0.00000000000000E+00   2.16076888536594E-17   7.84880857640185E-22   2.16084737345170E-17
      1.01581170546981E-15  -5.00000000000000E-01  -5.00000000000000E-01   0.00000000000000E+00   0.00000000000000E+00
      0.00000000000000E+00   0.00000000000000E+00   0.00000000000000E+00  -3.95904284575546E-16
      7.24884672790123E-03
      0.00000000000000E+00   0.00000000000000E+00   0.00000000000000E+00   0.00000000000000E+00   6.96685408206577E-18
     -3.47256660608395E-22   6.96650682540516E-18   8.27665414741718E-16   7.24884672790123E-03   7.24884672790123E-03
      0.00000000000000E+00   0.00000000000000E+00  -3.92050349683629E-18   1.05389609631827E-21  -3.91944960073997E-18
      1.01690448537427E-15  -5.00000000000000E-01  -5.00000000000000E-01   0.00000000000000E+00   0.00000000000000E+00
      0.00000000000000E+00   0.00000000000000E+00   0.00000000000000E+00  -3.96555622985515E-16
      9.60196478377613E-03
      0.00000000000000E+00   0.00000000000000E+00   0.00000000000000E+00   0.00000000000000E+00   4.96548273791668E-18
     -4.56114571196399E-22   4.96502662334549E-18   8.27433012179134E-16   9.60196478377613E-03   9.60196478377613E-03
      0.00000000000000E+00   0.00000000000000E+00  -2.44032120314054E-17   1.35536568855516E-21  -2.44018566657169E-17
      1.01820787077919E-15  -5.00000000000000E-01  -5.00000000000000E-01   0.00000000000000E+00   0.00000000000000E+00
      0.00000000000000E+00   0.00000000000000E+00   0.00000000000000E+00  -3.97316019046642E-16
      1.23943315434143E-02
      0.00000000000000E+00   0.00000000000000E+00   0.00000000000000E+00   0.00000000000000E+00  -3.46944688855966E-17
     -5.82633353978430E-22  -3.46950515189506E-17   8.27168105266861E-16   1.23943315434143E-02   1.23943315434143E-02
      0.00000000000000E+00   0.00000000000000E+00  -3.15333488118515E-17   1.68921933952358E-21  -3.15316595925119E-17
      1.01976348240128E-15  -5.00000000000000E-01  -5.00000000000000E-01   0.00000000000000E+00   0.00000000000000E+00
      0.00000000000000E+00   0.00000000000000E+00   0.00000000000000E+00  -3.98201178868751E-16
      1.57079400981850E-02
      0.00000000000000E+00   0.00000000000000E+00   0.00000000000000E+00   0.00000000000000E+00  -2.25386435902411E-17
     -7.28869564481198E-22  -2.25393724598055E-17   8.26868590102238E-16   1.57079400981850E-02   1.57079400981850E-02
      0.00000000000000E+00   0.00000000000000E+00   3.70421050461682E-18   2.05360819163909E-21   3.70626411280846E-18
      1.02162139220330E-15  -5.00000000000000E-01  -5.00000000000000E-01   0.00000000000000E+00   0.00000000000000E+00
      0.00000000000000E+00   0.00000000000000E+00   0.00000000000000E+00  -3.99228149780492E-16
      1.96400889165129E-02
      0.00000000000000E+00   0.00000000000000E+00   0.00000000000000E+00   0.00000000000000E+00   1.76908778991720E-17
     -8.96717787310414E-22   1.76899811813847E-17   8.26533222772140E-16   1.96400889165129E-02   1.96400889165129E-02
      0.00000000000000E+00   0.00000000000000E+00   3.48558342662536E-18   2.44429628018349E-21   3.48802772290555E-18
      1.02384176362579E-15  -5.00000000000000E-01  -5.00000000000000E-01   0.00000000000000E+00   0.00000000000000E+00
      0.00000000000000E+00   0.00000000000000E+00   0.00000000000000E+00  -4.00415198540195E-16
      2.43062388475953E-02
      0.00000000000000E+00   0.00000000000000E+00   0.00000000000000E+00   0.00000000000000E+00  -3.28785717817508E-17
     -1.08765302115234E-21  -3.28796594347719E-17   8.26162090101048E-16   2.43062388475953E-02   2.43062388475953E-02
      0.00000000000000E+00   0.00000000000000E+00   1.95779224189523E-17   2.85409384969672E-21   1.95807765128020E-17
      1.02649677534537E-15  -5.00000000000000E-01  -5.00000000000000E-01   0.00000000000000E+00   0.00000000000000E+00
      0.00000000000000E+00   0.00000000000000E+00   0.00000000000000E+00  -4.01781559146939E-16
      2.98434034324797E-02
      0.00000000000000E+00   0.00000000000000E+00   0.00000000000000E+00   0.00000000000000E+00  -1.72404233786144E-17
     -1.30244880116660E-21  -1.72417258274156E-17   8.25757007098439E-16   2.98434034324797E-02   2.98434034324797E-02
      0.00000000000000E+00   0.00000000000000E+00   4.06218379189689E-17   3.27244839082601E-21   4.06251103673598E-17
      1.02967260125233E-15  -5.00000000000000E-01  -5.00000000000000E-01   0.00000000000000E+00   0.00000000000000E+00
      0.00000000000000E+00   0.00000000000000E+00   0.00000000000000E+00  -4.03347390876748E-16
      3.64141720732093E-02
      0.00000000000000E+00   0.00000000000000E+00   0.00000000000000E+00   0.00000000000000E+00  -2.73870576140285E-17
     -1.54080318174745E-21  -2.73885984172102E-17   8.25321939220743E-16   3.64141720732093E-02   3.64141720732093E-02
      0.00000000000000E+00   0.00000000000000E+00   3.24892901093807E-17   3.68548367542628E-21   3.24929755930562E-17
      1.03347150719109E-15  -5.00000000000000E-01  -5.00000000000000E-01   0.00000000000000E+00   0.00000000000000E+00
      0.00000000000000E+00   0.00000000000000E+00   0.00000000000000E+00  -4.05133811542665E-16
      4.42114841935417E-02
      0.00000000000000E+00   0.00000000000000E+00   0.00000000000000E+00   0.00000000000000E+00  -2.67866672536291E-17
     -1.80110907694826E-21  -2.67884683627061E-17   8.24863003706211E-16   4.42114841935417E-02   4.42114841935417E-02
      0.00000000000000E+00   0.00000000000000E+00  -6.75637193163282E-18   4.07672896325385E-21  -6.75229520266957E-18
      1.03801355497668E-15  -5.00000000000000E-01  -5.00000000000000E-01   0.00000000000000E+00   0.00000000000000E+00
      0.00000000000000E+00   0.00000000000000E+00   0.00000000000000E+00  -4.07163727107881E-16
      5.34642945763361E-02
      0.00000000000000E+00   0.00000000000000E+00   0.00000000000000E+00   0.00000000000000E+00  -2.91894363750835E-17
     -2.08057861503276E-21  -2.91915169536985E-17   8.24387783954773E-16   5.34642945763361E-02   5.34642945763361E-02
      0.00000000000000E+00   0.00000000000000E+00   4.27307389163852E-17   4.42881422008069E-21   4.27351677306053E-17
      1.04343757914840E-15  -5.00000000000000E-01  -5.00000000000000E-01   0.00000000000000E+00   0.00000000000000E+00
      0.00000000000000E+00   0.00000000000000E+00   0.00000000000000E+00  -4.09463895460764E-16
      6.44442962305855E-02
      0.00000000000000E+00   0.00000000000000E+00   0.00000000000000E+00   0.00000000000000E+00  -2.92722397478038E-17
     -2.37595248165618E-21  -2.92746157002854E-17   8.23903783074205E-16   6.44442962305855E-02   6.44442962305855E-02
      0.00000000000000E+00   0.00000000000000E+00   6.43798588866484E-17   4.72613136890625E-21   6.43845850180173E-17
      1.04990121098538E-15  -5.00000000000000E-01  -5.00000000000000E-01   0.00000000000000E+00   0.00000000000000E+00
      0.00000000000000E+00   0.00000000000000E+00   0.00000000000000E+00  -4.12068523955735E-16
      7.73274981715715E-02
      0.00000000000000E+00   0.00000000000000E+00   0.00000000000000E+00   0.00000000000000E+00  -2.66704812210698E-17
     -2.68237825255331E-21  -2.66731635993223E-17   8.23420035235483E-16   7.73274981715715E-02   7.73274981715715E-02
      0.00000000000000E+00   0.00000000000000E+00   1.87652200315157E-17   4.95580239076746E-21   1.87701758339065E-17
      1.05749280515522E-15  -5.00000000000000E-01  -5.00000000000000E-01   0.00000000000000E+00   0.00000000000000E+00
      0.00000000000000E+00   0.00000000000000E+00   0.00000000000000E+00  -4.14993486852153E-16
      9.24437884489950E-02
      0.00000000000000E+00   0.00000000000000E+00   0.00000000000000E+00   0.00000000000000E+00  -1.84328357106381E-17
     -3.00350476392229E-21  -1.84358392154020E-17   8.22931656781093E-16   9.24437884489950E-02   9.24437884489950E-02
      0.00000000000000E+00   0.00000000000000E+00   2.90528150720924E-17   5.11627214294542E-21   2.90579313442354E-17
      1.06637160192473E-15  -5.00000000000000E-01  -5.00000000000000E-01   0.00000000000000E+00   0.00000000000000E+00
      0.00000000000000E+00   0.00000000000000E+00   0.00000000000000E+00  -4.18302474510425E-16
      1.10180235707839E-01
      0.00000000000000E+00   0.00000000000000E+00   0.00000000000000E+00   0.00000000000000E+00  -6.57044684535979E-17
     -3.35329029059916E-21  -6.57078217438885E-17   8.22419734321129E-16   1.10180235707839E-01   1.10180235707839E-01
      0.00000000000000E+00   0.00000000000000E+00   1.50641019626851E-17   5.21196101582771E-21   1.50693139237009E-17
      1.07670341138493E-15  -5.00000000000000E-01  -5.00000000000000E-01   0.00000000000000E+00   0.00000000000000E+00
      0.00000000000000E+00   0.00000000000000E+00   0.00000000000000E+00  -4.22090833426773E-16
      1.30991000491548E-01
      0.00000000000000E+00   0.00000000000000E+00   0.00000000000000E+00   0.00000000000000E+00  -3.18118209666534E-17
     -3.76446896549735E-21  -3.18155854356189E-17   8.21842683309591E-16   1.30991000491548E-01   1.30991000491548E-01
      0.00000000000000E+00   0.00000000000000E+00   4.61986533882883E-17   5.25118792329347E-21   4.62039045762116E-17
      1.08865859212786E-15  -5.00000000000000E-01  -5.00000000000000E-01   0.00000000000000E+00   0.00000000000000E+00
      0.00000000000000E+00   0.00000000000000E+00   0.00000000000000E+00  -4.26500549228561E-16
      1.55408964504435E-01
      0.00000000000000E+00   0.00000000000000E+00   0.00000000000000E+00   0.00000000000000E+00  -3.69278383709065E-17
     -4.30467032812829E-21  -3.69321430412346E-17   8.21121744008418E-16   1.55408964504435E-01   1.55408964504435E-01
      0.00000000000000E+00   0.00000000000000E+00   5.74045172088694E-17   5.24703519791796E-21   5.74097642440673E-17
      1.10241082428994E-15  -5.00000000000000E-01  -5.00000000000000E-01   0.00000000000000E+00   0.00000000000000E+00
      0.00000000000000E+00   0.00000000000000E+00   0.00000000000000E+00  -4.31744376697874E-16
      1.84059375612888E-01
      0.00000000000000E+00   0.00000000000000E+00   0.00000000000000E+00   0.00000000000000E+00  -4.14740310007915E-17
     -5.10716721560631E-21  -4.14791381680071E-17   8.20120127145239E-16   1.84059375612888E-01   1.84059375612888E-01
      0.00000000000000E+00   0.00000000000000E+00   2.87143370873102E-17   5.21718232314837E-21   2.87195542696333E-17
      1.11813827089974E-15  -5.00000000000000E-01  -5.00000000000000E-01   0.00000000000000E+00   0.00000000000000E+00
      0.00000000000000E+00   0.00000000000000E+00   0.00000000000000E+00  -4.38139634591362E-16
      2.17675857980139E-01
      0.00000000000000E+00   0.00000000000000E+00   0.00000000000000E+00   0.00000000000000E+00  -6.29438575011628E-17
     -6.41074126405112E-21  -6.29502682424269E-17   8.18642486094515E-16   2.17675857980139E-01   2.17675857980139E-01
      0.00000000000000E+00   0.00000000000000E+00   5.81543605692009E-17   5.17484619093286E-21   5.81595354153918E-17
      1.13604678030485E-15  -5.00000000000000E-01  -5.00000000000000E-01   0.00000000000000E+00   0.00000000000000E+00
      0.00000000000000E+00   0.00000000000000E+00   0.00000000000000E+00  -4.46110206984169E-16
      2.57119197291048E-01
      0.00000000000000E+00   0.00000000000000E+00   0.00000000000000E+00   0.00000000000000E+00  -8.54070329926621E-17
     -8.52949434938807E-21  -8.54155624870115E-17   8.16550670537746E-16   2.57119197291048E-01   2.57119197291048E-01
      0.00000000000000E+00   0.00000000000000E+00   8.51379494628848E-17   5.12584851738406E-21   8.51430753114022E-17
      1.15648123340097E-15  -5.00000000000000E-01  -5.00000000000000E-01   0.00000000000000E+00   0.00000000000000E+00
      0.00000000000000E+00   0.00000000000000E+00   0.00000000000000E+00  -4.56010030803192E-16
      3.03399382082514E-01
      0.00000000000000E+00   0.00000000000000E+00   0.00000000000000E+00   0.00000000000000E+00  -7.81692357660864E-17
     -1.15365004904313E-20  -7.81807722665769E-17   8.14061119425629E-16   3.03399382082514E-01   3.03399382082514E-01
      0.00000000000000E+00   0.00000000000000E+00   9.09245032764809E-17   5.07208203035693E-21   9.09295753585112E-17
      1.18015772192037E-15  -5.00000000000000E-01  -5.00000000000000E-01   0.00000000000000E+00   0.00000000000000E+00
      0.00000000000000E+00   0.00000000000000E+00   0.00000000000000E+00  -4.67673377796088E-16
      3.57084396440615E-01
      0.00000000000000E+00   0.00000000000000E+00   0.00000000000000E+00   0.00000000000000E+00  -1.00733105540912E-16
     -1.47624564774464E-20  -1.00747867997389E-16   8.11828702725651E-16   3.57084396440615E-01   3.57084396440615E-01
      0.00000000000000E+00   0.00000000000000E+00   1.98154900201199E-16   5.01871403041984E-21   1.98159918915229E-16
      1.20786843559457E-15  -5.00000000000000E-01  -5.00000000000000E-01   0.00000000000000E+00   0.00000000000000E+00
      0.00000000000000E+00   0.00000000000000E+00   0.00000000000000E+00  -4.80198809620334E-16
      4.19359013096012E-01
      0.00000000000000E+00   0.00000000000000E+00   0.00000000000000E+00   0.00000000000000E+00  -1.51689527354244E-16
     -1.76292054876314E-20  -1.51707156559731E-16   8.10117241546400E-16   4.19359013096012E-01   4.19359013096012E-01
      0.00000000000000E+00   0.00000000000000E+00   1.59180101660480E-16   4.99506127108399E-21   1.59185096721751E-16
      1.24041546343753E-15  -5.00000000000000E-01  -5.00000000000000E-01   0.00000000000000E+00   0.00000000000000E+00
      0.00000000000000E+00   0.00000000000000E+00   0.00000000000000E+00  -4.93402770090499E-16
      4.91597568416272E-01
      0.00000000000000E+00   0.00000000000000E+00   0.00000000000000E+00   0.00000000000000E+00  -1.63677485357699E-16
     -2.06116588899264E-20  -1.63698097016589E-16   8.08541978870500E-16   4.91597568416272E-01   4.91597568416272E-01
      0.00000000000000E+00   0.00000000000000E+00   1.53273811176113E-16   5.01507570008319E-21   1.53278826251813E-16
      1.27820334550265E-15  -5.00000000000000E-01  -5.00000000000000E-01   0.00000000000000E+00   0.00000000000000E+00
      0.00000000000000E+00   0.00000000000000E+00   0.00000000000000E+00  -5.08125195608620E-16
      5.75394292587774E-01
      0.00000000000000E+00   0.00000000000000E+00   0.00000000000000E+00   0.00000000000000E+00  -1.77148567189351E-16
     -2.42615293021881E-20  -1.77172828718653E-16   8.06836501671773E-16   5.75394292587774E-01   5.75394292587774E-01
      0.00000000000000E+00   0.00000000000000E+00   1.65066480903766E-16   5.03974868696091E-21   1.65071520652453E-16
      1.32183902984919E-15  -5.00000000000000E-01  -5.00000000000000E-01   0.00000000000000E+00   0.00000000000000E+00
      0.00000000000000E+00   0.00000000000000E+00   0.00000000000000E+00  -5.25060162517063E-16
      6.72598492626717E-01
      0.00000000000000E+00   0.00000000000000E+00   0.00000000000000E+00   0.00000000000000E+00  -2.10979958077477E-16
     -2.96354420069211E-20  -2.11009593519484E-16   8.04666316971144E-16   6.72598492626717E-01   6.72598492626717E-01
      0.00000000000000E+00   0.00000000000000E+00   1.70210591242175E-16   5.06264291221051E-21   1.70215653885088E-16
      1.37200631545377E-15  -5.00000000000000E-01  -5.00000000000000E-01   0.00000000000000E+00   0.00000000000000E+00
      0.00000000000000E+00   0.00000000000000E+00   0.00000000000000E+00  -5.45041333218655E-16
      7.82763252670851E-01
      0.00000000000000E+00   0.00000000000000E+00   0.00000000000000E+00   0.00000000000000E+00  -2.96583097457793E-16
     -4.38893790941972E-20  -2.96626986836887E-16   8.00207214270360E-16   7.82763252670851E-01   7.82763252670851E-01
      0.00000000000000E+00   0.00000000000000E+00   2.70263580098988E-16   5.08335002829498E-21   2.70268663449017E-16
      1.42712553850661E-15  -5.00000000000000E-01  -5.00000000000000E-01   0.00000000000000E+00   0.00000000000000E+00
      0.00000000000000E+00   0.00000000000000E+00   0.00000000000000E+00  -5.70663086349609E-16
      9.10554374322047E-01
      0.00000000000000E+00   0.00000000000000E+00   0.00000000000000E+00   0.00000000000000E+00  -4.43951127588986E-16
     -8.79588287562011E-20  -4.44039086417742E-16   7.91793427684503E-16   9.10554374322047E-01   9.10554374322047E-01
      0.00000000000000E+00   0.00000000000000E+00   4.33656324684129E-16   5.10264181394369E-21   4.33661427325943E-16
      1.48851090198543E-15  -5.00000000000000E-01  -5.00000000000000E-01   0.00000000000000E+00   0.00000000000000E+00
      0.00000000000000E+00   0.00000000000000E+00   0.00000000000000E+00  -6.05052720007957E-16
      1.00000000000000E+00
      0.00000000000000E+00   0.00000000000000E+00   0.00000000000000E+00   0.00000000000000E+00  -5.37221726210817E-16
     -1.25729089142333E-19  -5.37347455299960E-16   7.87269677647612E-16   1.00000000000000E+00   1.00000000000000E+00
      0.00000000000000E+00   0.00000000000000E+00   5.51870571229939E-16   5.11485550519500E-21   5.51875686085444E-16
      1.53226317267714E-15  -5.00000000000000E-01  -5.00000000000000E-01   0.00000000000000E+00   0.00000000000000E+00
      0.00000000000000E+00   0.00000000000000E+00   0.00000000000000E+00  -6.27107570684872E-16
      0.00000000000000E+00
      0.00000000000000E+00   0.00000000000000E+00   0.00000000000000E+00   0.00000000000000E+00  -5.13305175484638E-16
     -1.25728108114660E-19  -5.13430903592752E-16   7.87269777171581E-16   1.00000000000000E+00   1.00000000000000E+00
      0.00000000000000E+00   0.00000000000000E+00   5.42318610896034E-16   5.11485553287476E-21   5.42323725751567E-16
      1.53226324007549E-15  -5.00000000000000E-01  -5.00000000000000E-01   0.00000000000000E+00   0.00000000000000E+00
      0.00000000000000E+00   0.00000000000000E+00   0.00000000000000E+00  -6.27107428483035E-16
      1.00000000000000E-03
      0.00000000000000E+00   0.00000000000000E+00   0.00000000000000E+00   0.00000000000000E+00  -5.15072700358097E-16
     -1.25057381548579E-19  -5.15197757739646E-16   7.87232051688646E-16   1.00000000000000E+00   1.00000000000000E+00
      0.00000000000000E+00   0.00000000000000E+00   4.69339347794937E-16   5.11487424965368E-21   4.69344462669186E-16
      1.53195968901723E-15  -4.98000000000000E-01  -4.98000000000000E-01   0.00000000000000E+00   0.00000000000000E+00
      0.00000000000000E+00   0.00000000000000E+00   0.00000000000000E+00  -6.25087974347406E-16
      2.16000000000000E-03
      0.00000000000000E+00   0.00000000000000E+00   0.00000000000000E+00   0.00000000000000E+00  -5.03981313487200E-16
     -1.24291077356967E-19  -5.04105604564557E-16   7.87187307606240E-16   1.00000000000000E+00   1.00000000000000E+00
      0.00000000000000E+00   0.00000000000000E+00   5.62861083270279E-16   5.11489574367785E-21   5.62866198166022E-16
      1.53160655534564E-15  -4.95680000000000E-01  -4.95680000000000E-01   0.00000000000000E+00   0.00000000000000E+00
      0.00000000000000E+00   0.00000000000000E+00   0.00000000000000E+00  -6.22749865108444E-16
      3.53653333333333E-03
      0.00000000000000E+00   0.00000000000000E+00   0.00000000000000E+00   0.00000000000000E+00  -5.08317652113401E-16
     -1.23395530684637E-19  -5.08441047644086E-16   7.87133082776469E-16   1.00000000000000E+00   1.00000000000000E+00
      0.00000000000000E+00   0.00000000000000E+00   5.30359125469907E-16   5.11492101410355E-21   5.30364240390921E-16
      1.53118624625020E-15  -4.92926933333333E-01  -4.92926933333333E-01   0.00000000000000E+00   0.00000000000000E+00
      0.00000000000000E+00   0.00000000000000E+00   0.00000000000000E+00  -6.19981227548234E-16
      5.17001955555556E-03
      0.00000000000000E+00   0.00000000000000E+00   0.00000000000000E+00   0.00000000000000E+00  -5.10577511133087E-16
     -1.22352815890467E-19  -5.10699863948977E-16   7.87067056642616E-16   1.00000000000000E+00   1.00000000000000E+00
      0.00000000000000E+00   0.00000000000000E+00   4.73362310714937E-16   5.11495064500780E-21   4.73367425665582E-16
      1.53068563799437E-15  -4.89659960888889E-01  -4.89659960888889E-01   0.00000000000000E+00   0.00000000000000E+00
      0.00000000000000E+00   0.00000000000000E+00   0.00000000000000E+00  -6.16704323570795E-16
      7.10842320592592E-03
      0.00000000000000E+00   0.00000000000000E+00   0.00000000000000E+00   0.00000000000000E+00  -5.45176894822234E-16
     -1.21143329199830E-19  -5.45298038151434E-16   7.86986316837781E-16   1.00000000000000E+00   1.00000000000000E+00
      0.00000000000000E+00   0.00000000000000E+00   5.35692748967557E-16   5.11498529903328E-21   5.35697863952856E-16
      1.53008895768674E-15  -4.85783153588148E-01  -4.85783153588148E-01   0.00000000000000E+00   0.00000000000000E+00
      0.00000000000000E+00   0.00000000000000E+00   0.00000000000000E+00  -6.12827935066702E-16
      9.40866220436543E-03
      0.00000000000000E+00   0.00000000000000E+00   0.00000000000000E+00   0.00000000000000E+00  -5.20981150540773E-16
     -1.19746613229027E-19  -5.21100897154002E-16   7.86887123866945E-16   1.00000000000000E+00   1.00000000000000E+00
      0.00000000000000E+00   0.00000000000000E+00   5.27799872131667E-16   5.11502570334108E-21   5.27804987157370E-16
      1.52937716408968E-15  -4.81182675591269E-01  -4.81182675591269E-01   0.00000000000000E+00   0.00000000000000E+00
      0.00000000000000E+00   0.00000000000000E+00   0.00000000000000E+00  -6.08245387361377E-16
      1.21382791491803E-02
      0.00000000000000E+00   0.00000000000000E+00   0.00000000000000E+00   0.00000000000000E+00  -5.31473469673503E-16
     -1.18142464159439E-19  -5.31591612137663E-16   7.86764604991228E-16   1.00000000000000E+00   1.00000000000000E+00
      0.00000000000000E+00   0.00000000000000E+00   5.43531912056505E-16   5.11507262832162E-21   5.43537027129133E-16
      1.52852717807807E-15  -4.75723441701639E-01  -4.75723441701639E-01   0.00000000000000E+00   0.00000000000000E+00
      0.00000000000000E+00   0.00000000000000E+00   0.00000000000000E+00  -6.02832407310343E-16
      1.53774245903606E-02
      0.00000000000000E+00   0.00000000000000E+00   0.00000000000000E+00   0.00000000000000E+00  -5.34971288961444E-16
     -1.16312166932939E-19  -5.35087601128377E-16   7.86612376346821E-16   1.00000000000000E+00   1.00000000000000E+00
      0.00000000000000E+00   0.00000000000000E+00   5.17103513422201E-16   5.11512686270369E-21   5.17108628549064E-16
      1.52751093760721E-15  -4.69245150819279E-01  -4.69245150819279E-01   0.00000000000000E+00   0.00000000000000E+00
      0.00000000000000E+00   0.00000000000000E+00   0.00000000000000E+00  -5.96444843671498E-16
      1.92212105138946E-02
      0.00000000000000E+00   0.00000000000000E+00   0.00000000000000E+00   0.00000000000000E+00  -5.31657860367149E-16
     -1.14241614126767E-19  -5.31772101981276E-16   7.86421874527053E-16   1.00000000000000E+00   1.00000000000000E+00
      0.00000000000000E+00   0.00000000000000E+00   5.46161656121756E-16   5.11518912975696E-21   5.46166771310885E-16
      1.52629410185146E-15  -4.61557578972211E-01  -4.61557578972211E-01   0.00000000000000E+00   0.00000000000000E+00
      0.00000000000000E+00   0.00000000000000E+00   0.00000000000000E+00  -5.88916614347679E-16
      2.37312526641745E-02
      0.00000000000000E+00   0.00000000000000E+00   0.00000000000000E+00   0.00000000000000E+00  -5.30255725441617E-16
     -1.11944894228432E-19  -5.30367670335845E-16   7.86184867347146E-16   1.00000000000000E+00   1.00000000000000E+00
      0.00000000000000E+00   0.00000000000000E+00   5.79633336298770E-16   5.11525936549445E-21   5.79638451558135E-16
      1.52485133142820E-15  -4.52537494671651E-01  -4.52537494671651E-01   0.00000000000000E+00   0.00000000000000E+00
      0.00000000000000E+00   0.00000000000000E+00   0.00000000000000E+00  -5.80156126597797E-16
      2.90230354538362E-02
      0.00000000000000E+00   0.00000000000000E+00   0.00000000000000E+00   0.00000000000000E+00  -5.26301297512569E-16
     -1.09426801558871E-19  -5.26410724314128E-16   7.85887808649630E-16   1.00000000000000E+00   1.00000000000000E+00
      0.00000000000000E+00   0.00000000000000E+00   5.14473526557376E-16   5.11533782369930E-21   5.14478641895200E-16
      1.52313757380699E-15  -4.41953929092328E-01  -4.41953929092328E-01   0.00000000000000E+00   0.00000000000000E+00
      0.00000000000000E+00   0.00000000000000E+00   0.00000000000000E+00  -5.69979574815111E-16
      3.52320605937060E-02
      0.00000000000000E+00   0.00000000000000E+00   0.00000000000000E+00   0.00000000000000E+00  -5.34417850481101E-16
     -1.06704019808796E-19  -5.34524554500910E-16   7.85512741350900E-16   1.00000000000000E+00   1.00000000000000E+00
      0.00000000000000E+00   0.00000000000000E+00   5.64976452594000E-16   5.11542442252457E-21   5.64981568018423E-16
      1.52109798962670E-15  -4.29535878812588E-01  -4.29535878812588E-01   0.00000000000000E+00   0.00000000000000E+00
      0.00000000000000E+00   0.00000000000000E+00   0.00000000000000E+00  -5.58183048208958E-16
      4.25173167578198E-02
      0.00000000000000E+00   0.00000000000000E+00   0.00000000000000E+00   0.00000000000000E+00  -5.15977139368863E-16
     -1.03811256937015E-19  -5.16080950625800E-16   7.85035437286162E-16   1.00000000000000E+00   1.00000000000000E+00
      0.00000000000000E+00   0.00000000000000E+00   5.76518637373764E-16   5.11551849426687E-21   5.76523752892258E-16
      1.51866564200206E-15  -4.14965366484360E-01  -4.14965366484360E-01   0.00000000000000E+00   0.00000000000000E+00
      0.00000000000000E+00   0.00000000000000E+00   0.00000000000000E+00  -5.44543719751922E-16
      5.10653506570467E-02
      0.00000000000000E+00   0.00000000000000E+00   0.00000000000000E+00   0.00000000000000E+00  -5.25342248109302E-16
     -1.00808637192706E-19  -5.25443056746495E-16   7.84422754770575E-16   1.00000000000000E+00   1.00000000000000E+00