DF-ISE text

Info {
  version   = 1.0
  type      = xyplot
  datasets  = [
    "time"
    "S OuterVoltage" "S InnerVoltage" "S QuasiFermiPotential" "S DisplacementCurrent" "S eCurrent"
    "S hCurrent" "S TotalCurrent" "S Charge" "D OuterVoltage" "D InnerVoltage"
    "D QuasiFermiPotential" "D DisplacementCurrent" "D eCurrent" "D hCurrent" "D TotalCurrent"
    "D Charge" "G OuterVoltage" "G InnerVoltage" "G QuasiFermiPotential" "G DisplacementCurrent"
    "G eCurrent" "G hCurrent" "G TotalCurrent" "G Charge" ]
  functions = [
    Time
    OuterVoltage InnerVoltage QuasiFermiPotential DisplacementCurrent eCurrent
    hCurrent TotalCurrent Charge OuterVoltage InnerVoltage
    QuasiFermiPotential DisplacementCurrent eCurrent hCurrent TotalCurrent
    Charge OuterVoltage InnerVoltage QuasiFermiPotential DisplacementCurrent
    eCurrent hCurrent TotalCurrent Charge ]
}

Data {
      0.00000000000000E+00
      0.00000000000000E+00   0.00000000000000E+00   0.00000000000000E+00   0.00000000000000E+00  -2.38993334525043E-21
     -8.03670020569382E-35  -2.38993334525051E-21   3.33391408115910E-16   0.00000000000000E+00   0.00000000000000E+00
      0.00000000000000E+00   0.00000000000000E+00  -3.57069556315782E-21  -1.78126923706745E-35  -3.57069556315784E-21
      4.92861416248082E-16  -5.00000000000000E-01  -5.00000000000000E-01   0.00000000000000E+00   0.00000000000000E+00
      0.00000000000000E+00   0.00000000000000E+00   0.00000000000000E+00  -3.81129994341377E-16
      0.00000000000000E+00
      0.00000000000000E+00   0.00000000000000E+00   0.00000000000000E+00   0.00000000000000E+00   6.76430162945786E-18
     -6.90053267570909E-31   6.76430162945717E-18   3.33391407866817E-16   0.00000000000000E+00   0.00000000000000E+00
      0.00000000000000E+00   0.00000000000000E+00  -4.78512578342195E-18  -6.90527086189676E-31  -4.78512578342264E-18
      4.92861415997835E-16  -5.00000000000000E-01  -5.00000000000000E-01   0.00000000000000E+00   0.00000000000000E+00
      0.00000000000000E+00   0.00000000000000E+00   0.00000000000000E+00  -3.81129994450210E-16
      1.00000000000000E-03
      0.00000000000000E+00   0.00000000000000E+00   0.00000000000000E+00   0.00000000000000E+00   4.75989403793626E-18
     -2.85451905352385E-22   4.75960858603091E-18   3.33355596293064E-16   1.00000000000000E-03   1.00000000000000E-03
      0.00000000000000E+00   0.00000000000000E+00  -6.59217866055639E-18   6.63018345495413E-22  -6.59151564221090E-18
      4.93098142919817E-16  -5.00000000000000E-01  -5.00000000000000E-01   0.00000000000000E+00   0.00000000000000E+00
      0.00000000000000E+00   0.00000000000000E+00   0.00000000000000E+00  -3.81507346278744E-16
      2.17333333333333E-03
      0.00000000000000E+00   0.00000000000000E+00   0.00000000000000E+00   0.00000000000000E+00   1.82950181039201E-18
     -6.20350028628032E-22   1.82888146036338E-18   3.33313900623450E-16   2.17333333333333E-03   2.17333333333333E-03
      0.00000000000000E+00   0.00000000000000E+00  -1.67968411917156E-18   1.42229035476797E-21  -1.67826182881679E-18
      4.93376218996981E-16  -5.00000000000000E-01  -5.00000000000000E-01   0.00000000000000E+00   0.00000000000000E+00
      0.00000000000000E+00   0.00000000000000E+00   0.00000000000000E+00  -3.81947180486796E-16
      3.56568888888889E-03
      0.00000000000000E+00   0.00000000000000E+00   0.00000000000000E+00   0.00000000000000E+00  -7.88035595287563E-18
     -1.01761073662198E-21  -7.88137356361225E-18   3.33264870981717E-16   3.56568888888889E-03   3.56568888888889E-03
      0.00000000000000E+00   0.00000000000000E+00   3.24568806243475E-18   2.29757588808510E-21   3.24798563832284E-18
      4.93706641806963E-16  -5.00000000000000E-01  -5.00000000000000E-01   0.00000000000000E+00   0.00000000000000E+00
      0.00000000000000E+00   0.00000000000000E+00   0.00000000000000E+00  -3.82465050500443E-16
      5.21795081481481E-03
      0.00000000000000E+00   0.00000000000000E+00   0.00000000000000E+00   0.00000000000000E+00  -7.95721472925949E-18
     -1.48864007458695E-21  -7.95870336933408E-18   3.33207315378370E-16   5.21795081481481E-03   5.21795081481481E-03
      0.00000000000000E+00   0.00000000000000E+00   8.19154730312916E-18   3.30076653420383E-21   8.19484806966336E-18
      4.94099354763817E-16  -5.00000000000000E-01  -5.00000000000000E-01   0.00000000000000E+00   0.00000000000000E+00
      0.00000000000000E+00   0.00000000000000E+00   0.00000000000000E+00  -3.83073918175109E-16
      7.17863496691358E-03
      0.00000000000000E+00   0.00000000000000E+00   0.00000000000000E+00   0.00000000000000E+00  -9.00155204407763E-18
     -2.04676808466479E-21  -9.00359881216229E-18   3.33139886938493E-16   7.17863496691358E-03   7.17863496691358E-03
      0.00000000000000E+00   0.00000000000000E+00  -4.99850932988990E-18   4.44249097410831E-21  -4.99406683891579E-18
      4.94566222405443E-16  -5.00000000000000E-01  -5.00000000000000E-01   0.00000000000000E+00   0.00000000000000E+00
      0.00000000000000E+00   0.00000000000000E+00   0.00000000000000E+00  -3.83788549827771E-16
      9.50531349407078E-03
      0.00000000000000E+00   0.00000000000000E+00   0.00000000000000E+00   0.00000000000000E+00   1.37934596863451E-18
     -2.70745744809004E-21   1.37663851118642E-18   3.33061079242924E-16   9.50531349407078E-03   9.50531349407078E-03
      0.00000000000000E+00   0.00000000000000E+00  -1.02631324924667E-18   5.73080142322933E-21  -1.02058244782344E-18
      4.95121411863369E-16  -5.00000000000000E-01  -5.00000000000000E-01   0.00000000000000E+00   0.00000000000000E+00
      0.00000000000000E+00   0.00000000000000E+00   0.00000000000000E+00  -3.84625630634817E-16
      1.22663053462973E-02
      0.00000000000000E+00   0.00000000000000E+00   0.00000000000000E+00   0.00000000000000E+00   1.22735108772274E-18
     -3.48845664760121E-21   1.22386263107514E-18   3.32969227952862E-16   1.22663053462973E-02   1.22663053462973E-02
      0.00000000000000E+00   0.00000000000000E+00   1.16358770892325E-17   7.16940148934709E-21   1.16430464907219E-17
      4.95781851953173E-16  -5.00000000000000E-01  -5.00000000000000E-01   0.00000000000000E+00   0.00000000000000E+00
      0.00000000000000E+00   0.00000000000000E+00   0.00000000000000E+00  -3.85603833003322E-16
      1.55426823442728E-02
      0.00000000000000E+00   0.00000000000000E+00   0.00000000000000E+00   0.00000000000000E+00  -6.46442551921060E-18
     -4.40983608783498E-21  -6.46883535529844E-18   3.32862520852847E-16   1.55426823442728E-02   1.55426823442728E-02
      0.00000000000000E+00   0.00000000000000E+00   1.00864858509740E-17   8.75538645187823E-21   1.00952412374259E-17
      4.96567784965331E-16  -5.00000000000000E-01  -5.00000000000000E-01   0.00000000000000E+00   0.00000000000000E+00
      0.00000000000000E+00   0.00000000000000E+00   0.00000000000000E+00  -3.86743819405631E-16
      1.94306497152037E-02
      0.00000000000000E+00   0.00000000000000E+00   0.00000000000000E+00   0.00000000000000E+00  -2.67717977879342E-18
     -5.49381822534021E-21  -2.68267359701876E-18   3.32739017682761E-16   1.94306497152037E-02   1.94306497152037E-02
      0.00000000000000E+00   0.00000000000000E+00   4.15669170461820E-18   1.04765608294303E-20   4.16716826544763E-18
      4.97503427739651E-16  -5.00000000000000E-01  -5.00000000000000E-01   0.00000000000000E+00   0.00000000000000E+00
      0.00000000000000E+00   0.00000000000000E+00   0.00000000000000E+00  -3.88068165308368E-16
      2.40443709953751E-02
      0.00000000000000E+00   0.00000000000000E+00   0.00000000000000E+00   0.00000000000000E+00  -1.55060098823717E-17
     -6.76425641602731E-21  -1.55127741387878E-17   3.32596680876576E-16   2.40443709953751E-02   2.40443709953751E-02
      0.00000000000000E+00   0.00000000000000E+00   1.27289029743067E-17   1.23085872971106E-20   1.27412115616038E-17
      4.98617760968115E-16  -5.00000000000000E-01  -5.00000000000000E-01   0.00000000000000E+00   0.00000000000000E+00
      0.00000000000000E+00   0.00000000000000E+00   0.00000000000000E+00  -3.89601187232755E-16
      2.95193202478451E-02
      0.00000000000000E+00   0.00000000000000E+00   0.00000000000000E+00   0.00000000000000E+00  -1.17067278093323E-17
     -8.24573777896681E-21  -1.17149735471113E-17   3.32433405021567E-16   2.95193202478451E-02   2.95193202478451E-02
      0.00000000000000E+00   0.00000000000000E+00   1.40227444869243E-17   1.42124484486628E-20   1.40369569353729E-17
      4.99945455796520E-16  -5.00000000000000E-01  -5.00000000000000E-01   0.00000000000000E+00   0.00000000000000E+00
      0.00000000000000E+00   0.00000000000000E+00   0.00000000000000E+00  -3.91368774424995E-16
      3.60162600274429E-02
      0.00000000000000E+00   0.00000000000000E+00   0.00000000000000E+00   0.00000000000000E+00  -5.67746971636797E-18
     -9.96206758815829E-21  -5.68743178395613E-18   3.32247042580315E-16   3.60162600274429E-02   3.60162600274429E-02
      0.00000000000000E+00   0.00000000000000E+00   5.13930226945967E-18   1.61332182150105E-20   5.15543548767468E-18
      5.01527959951510E-16  -5.00000000000000E-01  -5.00000000000000E-01   0.00000000000000E+00   0.00000000000000E+00
      0.00000000000000E+00   0.00000000000000E+00   0.00000000000000E+00  -3.93398229812928E-16
      4.37259618992322E-02
      0.00000000000000E+00   0.00000000000000E+00   0.00000000000000E+00   0.00000000000000E+00  -8.69595085480080E-18
     -1.19345959212732E-20  -8.70788545072208E-18   3.32035376951033E-16   4.37259618992322E-02   4.37259618992322E-02
      0.00000000000000E+00   0.00000000000000E+00   1.90529483251378E-17   1.80013422591929E-20   1.90709496673969E-17
      5.03414725130818E-16  -5.00000000000000E-01  -5.00000000000000E-01   0.00000000000000E+00   0.00000000000000E+00
      0.00000000000000E+00   0.00000000000000E+00   0.00000000000000E+00  -3.95718530402909E-16
      5.28748081204222E-02
      0.00000000000000E+00   0.00000000000000E+00   0.00000000000000E+00   0.00000000000000E+00  -2.03035897142626E-17
     -1.41807885832069E-20  -2.03177705028458E-17   3.31796009905902E-16   5.28748081204222E-02   5.28748081204222E-02
      0.00000000000000E+00   0.00000000000000E+00   1.36067067017373E-17   1.97380083038140E-20   1.36264447100411E-17
      5.05664579074300E-16  -5.00000000000000E-01  -5.00000000000000E-01   0.00000000000000E+00   0.00000000000000E+00
      0.00000000000000E+00   0.00000000000000E+00   0.00000000000000E+00  -3.98361269923753E-16
      6.36094543532852E-02
      0.00000000000000E+00   0.00000000000000E+00   0.00000000000000E+00   0.00000000000000E+00  -2.35105227771882E-17
     -1.66867444829727E-20  -2.35272095216712E-17   3.31529053965987E-16   6.36094543532852E-02   6.36094543532852E-02
      0.00000000000000E+00   0.00000000000000E+00   1.40999394650683E-17   2.12510102445186E-20   1.41211904753128E-17
      5.08317011707796E-16  -5.00000000000000E-01  -5.00000000000000E-01   0.00000000000000E+00   0.00000000000000E+00
      0.00000000000000E+00   0.00000000000000E+00   0.00000000000000E+00  -4.01329850564587E-16
      7.62047725998443E-02
      0.00000000000000E+00   0.00000000000000E+00   0.00000000000000E+00   0.00000000000000E+00  -2.19883849560883E-17
     -1.94617704780716E-20  -2.20078467265664E-17   3.31231334546823E-16   7.62047725998443E-02   7.62047725998443E-02
      0.00000000000000E+00   0.00000000000000E+00   2.68276652038934E-17   2.24891189231645E-20   2.68501543228166E-17
      5.11442925570783E-16  -5.00000000000000E-01  -5.00000000000000E-01   0.00000000000000E+00   0.00000000000000E+00
      0.00000000000000E+00   0.00000000000000E+00   0.00000000000000E+00  -4.04662224978531E-16
      9.09832793424738E-02
      0.00000000000000E+00   0.00000000000000E+00   0.00000000000000E+00   0.00000000000000E+00  -2.81235480935339E-17
     -2.25228268547122E-20  -2.81460709203886E-17   3.30898342215905E-16   9.09832793424738E-02   9.09832793424738E-02
      0.00000000000000E+00   0.00000000000000E+00   2.35028447663884E-17   2.34300916879487E-20   2.35262748580763E-17
      5.15124610620080E-16  -5.00000000000000E-01  -5.00000000000000E-01   0.00000000000000E+00   0.00000000000000E+00
      0.00000000000000E+00   0.00000000000000E+00   0.00000000000000E+00  -4.08408251673094E-16
      1.08323393920492E-01
      0.00000000000000E+00   0.00000000000000E+00   0.00000000000000E+00   0.00000000000000E+00  -1.98668190885104E-17
     -2.59049265116859E-20  -1.98927240150221E-17   3.30523706339338E-16   1.08323393920492E-01   1.08323393920492E-01
      0.00000000000000E+00   0.00000000000000E+00   2.38256243163881E-17   2.40866946283951E-20   2.38497110110165E-17
      5.19457419126739E-16  -5.00000000000000E-01  -5.00000000000000E-01   0.00000000000000E+00   0.00000000000000E+00
      0.00000000000000E+00   0.00000000000000E+00   0.00000000000000E+00  -4.12634136708639E-16
      1.28669128358701E-01
      0.00000000000000E+00   0.00000000000000E+00   0.00000000000000E+00   0.00000000000000E+00  -2.61489444415749E-17
     -2.96771235996856E-20  -2.61786215651746E-17   3.30098616053973E-16   1.28669128358701E-01   1.28669128358701E-01
      0.00000000000000E+00   0.00000000000000E+00   2.41160030710219E-17   2.45038386213452E-20   2.41405069096432E-17
      5.24551776633825E-16  -5.00000000000000E-01  -5.00000000000000E-01   0.00000000000000E+00   0.00000000000000E+00
      0.00000000000000E+00   0.00000000000000E+00   0.00000000000000E+00  -4.17427535322202E-16
      1.52541456766199E-01
      0.00000000000000E+00   0.00000000000000E+00   0.00000000000000E+00   0.00000000000000E+00  -3.90786784176529E-17
     -3.39802980072981E-20  -3.91126587156602E-17   3.29610746199303E-16   1.52541456766199E-01   1.52541456766199E-01
      0.00000000000000E+00   0.00000000000000E+00   3.11139866081694E-17   2.47464898279949E-20   3.11387330979974E-17
      5.30535181746003E-16  -5.00000000000000E-01  -5.00000000000000E-01   0.00000000000000E+00   0.00000000000000E+00
      0.00000000000000E+00   0.00000000000000E+00   0.00000000000000E+00  -4.22907608802526E-16
      1.80551655430996E-01
      0.00000000000000E+00   0.00000000000000E+00   0.00000000000000E+00   0.00000000000000E+00  -3.59074223349859E-17
     -3.91298762081186E-20  -3.59465522111940E-17   3.29041807163948E-16   1.80551655430996E-01   1.80551655430996E-01
      0.00000000000000E+00   0.00000000000000E+00   3.69233170048349E-17   2.48812287883365E-20   3.69481982336232E-17
      5.37553470358307E-16  -5.00000000000000E-01  -5.00000000000000E-01   0.00000000000000E+00   0.00000000000000E+00
      0.00000000000000E+00   0.00000000000000E+00   0.00000000000000E+00  -4.29248702631519E-16
      2.13416955197692E-01
      0.00000000000000E+00   0.00000000000000E+00   0.00000000000000E+00   0.00000000000000E+00  -4.41879676660801E-17
     -4.58216701151645E-20  -4.42337893361953E-17   3.28364071150048E-16   2.13416955197692E-01   2.13416955197692E-01
      0.00000000000000E+00   0.00000000000000E+00   5.04067300327177E-17   2.49599692981578E-20   5.04316900020159E-17
      5.45771816523706E-16  -5.00000000000000E-01  -5.00000000000000E-01   0.00000000000000E+00   0.00000000000000E+00
      0.00000000000000E+00   0.00000000000000E+00   0.00000000000000E+00  -4.36715201656196E-16
      2.51978906923948E-01
      0.00000000000000E+00   0.00000000000000E+00   0.00000000000000E+00   0.00000000000000E+00  -6.36416985233683E-17
     -5.54454058650432E-20  -6.36971439292334E-17   3.27538407928884E-16   2.51978906923948E-01   2.51978906923948E-01
      0.00000000000000E+00   0.00000000000000E+00   7.02418623736261E-17   2.50132564095590E-20   7.02668756300356E-17
      5.55377938054434E-16  -5.00000000000000E-01  -5.00000000000000E-01   0.00000000000000E+00   0.00000000000000E+00
      0.00000000000000E+00   0.00000000000000E+00   0.00000000000000E+00  -4.45683732226371E-16
      2.96710770926406E-01
      0.00000000000000E+00   0.00000000000000E+00   0.00000000000000E+00   0.00000000000000E+00  -8.65822554427004E-17
     -7.03162452097488E-20  -8.66525716879102E-17   3.26529042512636E-16   2.96710770926406E-01   2.96710770926406E-01
      0.00000000000000E+00   0.00000000000000E+00   1.01082131974280E-16   2.50627984297713E-20   1.01107194772710E-16
      5.66463461039382E-16  -5.00000000000000E-01  -5.00000000000000E-01   0.00000000000000E+00   0.00000000000000E+00
      0.00000000000000E+00   0.00000000000000E+00   0.00000000000000E+00  -4.56492362976975E-16
      3.48599733169256E-01
      0.00000000000000E+00   0.00000000000000E+00   0.00000000000000E+00   0.00000000000000E+00  -1.35699155220254E-16
     -9.34308581207131E-20  -1.35792586078375E-16   3.25309511800450E-16   3.48599733169256E-01   3.48599733169256E-01
      0.00000000000000E+00   0.00000000000000E+00   1.53958965232765E-16   2.51232209824837E-20   1.53984088453747E-16
      5.79265850010245E-16  -5.00000000000000E-01  -5.00000000000000E-01   0.00000000000000E+00   0.00000000000000E+00
      0.00000000000000E+00   0.00000000000000E+00   0.00000000000000E+00  -4.69408313708720E-16
      4.08790929370963E-01
      0.00000000000000E+00   0.00000000000000E+00   0.00000000000000E+00   0.00000000000000E+00  -2.30502427555052E-16
     -1.25817316182903E-19  -2.30628244871235E-16   3.23904278472078E-16   4.08790929370963E-01   4.08790929370963E-01
      0.00000000000000E+00   0.00000000000000E+00   2.30856642087343E-16   2.52036736218123E-20   2.30881845760965E-16
      5.94108218360088E-16  -5.00000000000000E-01  -5.00000000000000E-01   0.00000000000000E+00   0.00000000000000E+00
      0.00000000000000E+00   0.00000000000000E+00   0.00000000000000E+00  -4.84214761262756E-16
      4.78612716964943E-01
      0.00000000000000E+00   0.00000000000000E+00   0.00000000000000E+00   0.00000000000000E+00  -3.81735988948199E-16
     -1.61009419029819E-19  -3.81896998367229E-16   3.22398467878393E-16   4.78612716964943E-01   4.78612716964943E-01
      0.00000000000000E+00   0.00000000000000E+00   3.97301749006252E-16   2.53039128920597E-20   3.97327052919144E-16
      6.11410936905647E-16  -5.00000000000000E-01  -5.00000000000000E-01   0.00000000000000E+00   0.00000000000000E+00
      0.00000000000000E+00   0.00000000000000E+00   0.00000000000000E+00  -5.00118737444755E-16
      5.58675033406039E-01
      0.00000000000000E+00   0.00000000000000E+00   0.00000000000000E+00   0.00000000000000E+00  -7.11378642900953E-16
     -1.85942806439419E-19  -7.11564585707392E-16   3.20878188051894E-16   5.58675033406039E-01   5.58675033406039E-01
      0.00000000000000E+00   0.00000000000000E+00   7.05146721202753E-16   2.54202871070245E-20   7.05172141489860E-16
      6.31391510063589E-16  -5.00000000000000E-01  -5.00000000000000E-01   0.00000000000000E+00   0.00000000000000E+00
      0.00000000000000E+00   0.00000000000000E+00   0.00000000000000E+00  -5.16311082508660E-16
      6.50479822925164E-01
      0.00000000000000E+00   0.00000000000000E+00   0.00000000000000E+00   0.00000000000000E+00  -1.41302209772555E-15
     -2.04464102599294E-19  -1.41322656182815E-15   3.19236011311429E-16   6.50479822925164E-01   6.50479822925164E-01
      0.00000000000000E+00   0.00000000000000E+00   1.40839960357387E-15   2.55535650262253E-20   1.40842515713890E-15
      6.54327956794185E-16  -5.00000000000000E-01  -5.00000000000000E-01   0.00000000000000E+00   0.00000000000000E+00
      0.00000000000000E+00   0.00000000000000E+00   0.00000000000000E+00  -5.33871669209748E-16
      7.56973378767348E-01
      0.00000000000000E+00   0.00000000000000E+00   0.00000000000000E+00   0.00000000000000E+00  -3.10552929334852E-15
     -2.18032621556669E-19  -3.10574732597007E-15   3.17393707565576E-16   7.56973378767348E-01   7.56973378767348E-01
      0.00000000000000E+00   0.00000000000000E+00   3.10589034000756E-15   2.57072578778952E-20   3.10591604726544E-15
      6.80896145992260E-16  -5.00000000000000E-01  -5.00000000000000E-01   0.00000000000000E+00   0.00000000000000E+00
      0.00000000000000E+00   0.00000000000000E+00   0.00000000000000E+00  -5.53661315901862E-16
      8.80505903544281E-01
      0.00000000000000E+00   0.00000000000000E+00   0.00000000000000E+00   0.00000000000000E+00  -7.50383845299738E-15
     -2.21568458359257E-19  -7.50406002145574E-15   3.15339191863289E-16   8.80505903544281E-01   8.80505903544281E-01
      0.00000000000000E+00   0.00000000000000E+00   7.48289348940827E-15   2.58841713048605E-20   7.48291937357957E-15
      7.11648027774912E-16  -5.00000000000000E-01  -5.00000000000000E-01   0.00000000000000E+00   0.00000000000000E+00
      0.00000000000000E+00   0.00000000000000E+00   0.00000000000000E+00  -5.75938261861775E-16
      1.00000000000000E+00
      0.00000000000000E+00   0.00000000000000E+00   0.00000000000000E+00   0.00000000000000E+00  -1.70918389598040E-14
     -2.19417197101734E-19  -1.70920583770011E-14   3.13380977831062E-16   1.00000000000000E+00   1.00000000000000E+00
      0.00000000000000E+00   0.00000000000000E+00   1.70773557986523E-14   2.60532406568183E-20   1.70773818518930E-14
      7.41271706931700E-16  -5.00000000000000E-01  -5.00000000000000E-01   0.00000000000000E+00   0.00000000000000E+00
      0.00000000000000E+00   0.00000000000000E+00   0.00000000000000E+00  -5.97368003073508E-16
      0.00000000000000E+00
      0.00000000000000E+00   0.00000000000000E+00   0.00000000000000E+00   0.00000000000000E+00  -1.70930500732801E-14
     -2.19417640980409E-19  -1.70932694909211E-14   3.13380974608661E-16   1.00000000000000E+00   1.00000000000000E+00
      0.00000000000000E+00   0.00000000000000E+00   1.70972461860711E-14   2.60532406296564E-20   1.70972722393117E-14
      7.41271704619557E-16  -5.00000000000000E-01  -5.00000000000000E-01   0.00000000000000E+00   0.00000000000000E+00
      0.00000000000000E+00   0.00000000000000E+00   0.00000000000000E+00  -5.97368032615650E-16
      1.00000000000000E-03
      0.00000000000000E+00   0.00000000000000E+00   0.00000000000000E+00   0.00000000000000E+00  -1.72122175326367E-14
     -2.16444285039092E-19  -1.72124339769218E-14   3.13283817111039E-16   1.00000000000000E+00   1.00000000000000E+00
      0.00000000000000E+00   0.00000000000000E+00   1.72079565566473E-14   2.60524682042779E-20   1.72079826091155E-14
      7.40924751806554E-16  -4.98000000000000E-01  -4.98000000000000E-01   0.00000000000000E+00   0.00000000000000E+00
      0.00000000000000E+00   0.00000000000000E+00   0.00000000000000E+00  -5.95436133408055E-16
      2.14666666666667E-03
      0.00000000000000E+00   0.00000000000000E+00   0.00000000000000E+00   0.00000000000000E+00  -1.73604251672761E-14
     -2.13102249666451E-19  -1.73606382695258E-14   3.13171548704323E-16   1.00000000000000E+00   1.00000000000000E+00
      0.00000000000000E+00   0.00000000000000E+00   1.73727815358332E-14   2.60515731609088E-20   1.73728075874063E-14
      7.40525855913819E-16  -4.95706666666667E-01  -4.95706666666667E-01   0.00000000000000E+00   0.00000000000000E+00
      0.00000000000000E+00   0.00000000000000E+00   0.00000000000000E+00  -5.93229599372184E-16
      3.50737777777778E-03
      0.00000000000000E+00   0.00000000000000E+00   0.00000000000000E+00   0.00000000000000E+00  -1.75554007280447E-14
     -2.09231541635903E-19  -1.75556099595864E-14   3.13037094133962E-16   1.00000000000000E+00   1.00000000000000E+00
      0.00000000000000E+00   0.00000000000000E+00   1.75539738950592E-14   2.60504978604884E-20   1.75539999455571E-14
      7.40051020316539E-16  -4.92985244444444E-01  -4.92985244444444E-01   0.00000000000000E+00   0.00000000000000E+00
      0.00000000000000E+00   0.00000000000000E+00   0.00000000000000E+00  -5.90623564886504E-16
      5.10394548148148E-03
      0.00000000000000E+00   0.00000000000000E+00   0.00000000000000E+00   0.00000000000000E+00  -1.77679896375213E-14
     -2.04815976289764E-19  -1.77681944534976E-14   3.12877636814393E-16   1.00000000000000E+00   1.00000000000000E+00
      0.00000000000000E+00   0.00000000000000E+00   1.77717827837875E-14   2.60492180573698E-20   1.77718088330056E-14
      7.39491855339983E-16  -4.89792109037037E-01  -4.89792109037037E-01   0.00000000000000E+00   0.00000000000000E+00
      0.00000000000000E+00   0.00000000000000E+00   0.00000000000000E+00  -5.87582888497741E-16
      6.97725158716049E-03
      0.00000000000000E+00   0.00000000000000E+00   0.00000000000000E+00   0.00000000000000E+00  -1.80483706706858E-14
     -1.99806802314941E-19  -1.80485704774881E-14   3.12688155076226E-16   1.00000000000000E+00   1.00000000000000E+00
      0.00000000000000E+00   0.00000000000000E+00   1.80573087472614E-14   2.60476912410459E-20   1.80573347949526E-14
      7.38832981428391E-16  -4.86045496825679E-01  -4.86045496825679E-01   0.00000000000000E+00   0.00000000000000E+00
      0.00000000000000E+00   0.00000000000000E+00   0.00000000000000E+00  -5.84039039333131E-16
      9.17526408449054E-03
      0.00000000000000E+00   0.00000000000000E+00   0.00000000000000E+00   0.00000000000000E+00  -1.83749003275852E-14
     -1.94160469268319E-19  -1.83750944880545E-14   3.12462484594139E-16   1.00000000000000E+00   1.00000000000000E+00
      0.00000000000000E+00   0.00000000000000E+00   1.83913160664335E-14   2.60458649017134E-20   1.83913421122984E-14
      7.38056083351078E-16  -4.81649471831019E-01  -4.81649471831019E-01   0.00000000000000E+00   0.00000000000000E+00
      0.00000000000000E+00   0.00000000000000E+00   0.00000000000000E+00  -5.79914225319389E-16
      1.17542654146911E-02
      0.00000000000000E+00   0.00000000000000E+00   0.00000000000000E+00   0.00000000000000E+00  -1.87997592697274E-14
     -1.87844569580955E-19  -1.87999471142970E-14   3.12192993314803E-16   1.00000000000000E+00   1.00000000000000E+00
      0.00000000000000E+00   0.00000000000000E+00   1.88104522890427E-14   2.60436737102667E-20   1.88104783327164E-14
      7.37139301993478E-16  -4.76491469170618E-01  -4.76491469170618E-01   0.00000000000000E+00   0.00000000000000E+00
      0.00000000000000E+00   0.00000000000000E+00   0.00000000000000E+00  -5.75120940236554E-16
      1.47802936421265E-02
      0.00000000000000E+00   0.00000000000000E+00   0.00000000000000E+00   0.00000000000000E+00  -1.93256103868293E-14
     -1.80844625635421E-19  -1.93257912314550E-14   3.11870151203599E-16   1.00000000000000E+00   1.00000000000000E+00
      0.00000000000000E+00   0.00000000000000E+00   1.93316392920393E-14   2.60410358699190E-20   1.93316653330752E-14
      7.36056495865245E-16  -4.70439412715747E-01  -4.70439412715747E-01   0.00000000000000E+00   0.00000000000000E+00
      0.00000000000000E+00   0.00000000000000E+00   0.00000000000000E+00  -5.69561832912090E-16
      1.83308334289839E-02
      0.00000000000000E+00   0.00000000000000E+00   0.00000000000000E+00   0.00000000000000E+00  -1.99817218098022E-14
     -1.73172436044776E-19  -1.99818949822383E-14   3.11481942768376E-16   1.00000000000000E+00   1.00000000000000E+00
      0.00000000000000E+00   0.00000000000000E+00   1.99889505712997E-14   2.60378461730217E-20   1.99889766091459E-14
      7.34776336295004E-16  -4.63338333142032E-01  -4.63338333142032E-01   0.00000000000000E+00   0.00000000000000E+00
      0.00000000000000E+00   0.00000000000000E+00   0.00000000000000E+00  -5.63130224012730E-16
      2.24968001122300E-02
      0.00000000000000E+00   0.00000000000000E+00   0.00000000000000E+00   0.00000000000000E+00  -2.08317107030918E-14
     -1.64875754661752E-19  -2.08318755788464E-14   3.11013050637494E-16   1.00000000000000E+00   1.00000000000000E+00
      0.00000000000000E+00   0.00000000000000E+00   2.08456085574258E-14   2.60339580697013E-20   2.08456345913839E-14
      7.33261191401307E-16  -4.55006399775540E-01  -4.55006399775540E-01   0.00000000000000E+00   0.00000000000000E+00
      0.00000000000000E+00   0.00000000000000E+00   0.00000000000000E+00  -5.55711734441799E-16
      2.73848676872388E-02
      0.00000000000000E+00   0.00000000000000E+00   0.00000000000000E+00   0.00000000000000E+00  -2.19506513684345E-14
     -1.56049985224751E-19  -2.19508074184197E-14   3.10443686855148E-16   1.00000000000000E+00   1.00000000000000E+00
      0.00000000000000E+00   0.00000000000000E+00   2.19626440227601E-14   2.60292170229130E-20   2.19626700519772E-14
      7.31465722128051E-16  -4.45230264625522E-01  -4.45230264625522E-01   0.00000000000000E+00   0.00000000000000E+00
      0.00000000000000E+00   0.00000000000000E+00   0.00000000000000E+00  -5.47187925861159E-16
      3.31202003085824E-02
      0.00000000000000E+00   0.00000000000000E+00   0.00000000000000E+00   0.00000000000000E+00  -2.34490941427472E-14
     -1.46849963656495E-19  -2.34492409927108E-14   3.09747898217715E-16   1.00000000000000E+00   1.00000000000000E+00
      0.00000000000000E+00   0.00000000000000E+00   2.34499974280381E-14   2.60234039295519E-20   2.34500234514420E-14
      7.29335075888169E-16  -4.33759599382835E-01  -4.33759599382835E-01   0.00000000000000E+00   0.00000000000000E+00
      0.00000000000000E+00   0.00000000000000E+00   0.00000000000000E+00  -5.37443320775033E-16
      3.97731861493410E-02
      0.00000000000000E+00   0.00000000000000E+00   0.00000000000000E+00   0.00000000000000E+00  -2.54670351891236E-14
     -1.37599765074637E-19  -2.54671727888886E-14   3.08901038415385E-16   1.00000000000000E+00   1.00000000000000E+00
      0.00000000000000E+00   0.00000000000000E+00   2.54789328570414E-14   2.60163135059149E-20   2.54789588733549E-14
      7.26831434635659E-16  -4.20453627701318E-01  -4.20453627701318E-01   0.00000000000000E+00   0.00000000000000E+00
      0.00000000000000E+00   0.00000000000000E+00   0.00000000000000E+00  -5.26501875945091E-16
      4.74906497246210E-02
      0.00000000000000E+00   0.00000000000000E+00   0.00000000000000E+00   0.00000000000000E+00  -2.83181433334860E-14
     -1.28589590677235E-19  -2.83182719230766E-14   3.07861385280514E-16   1.00000000000000E+00   1.00000000000000E+00