DF-ISE text

Info {
  version   = 1.0
  type      = xyplot
  datasets  = [
    "time"
    "S OuterVoltage" "S InnerVoltage" "S QuasiFermiPotential" "S DisplacementCurrent" "S eCurrent"
    "S hCurrent" "S TotalCurrent" "S Charge" "D OuterVoltage" "D InnerVoltage"
    "D QuasiFermiPotential" "D DisplacementCurrent" "D eCurrent" "D hCurrent" "D TotalCurrent"
    "D Charge" "G OuterVoltage" "G InnerVoltage" "G QuasiFermiPotential" "G DisplacementCurrent"
    "G eCurrent" "G hCurrent" "G TotalCurrent" "G Charge" ]
  functions = [
    Time
    OuterVoltage InnerVoltage QuasiFermiPotential DisplacementCurrent eCurrent
    hCurrent TotalCurrent Charge OuterVoltage InnerVoltage
    QuasiFermiPotential DisplacementCurrent eCurrent hCurrent TotalCurrent
    Charge OuterVoltage InnerVoltage QuasiFermiPotential DisplacementCurrent
    eCurrent hCurrent TotalCurrent Charge ]
}

Data {
      0.00000000000000E+00
      0.00000000000000E+00   0.00000000000000E+00   0.00000000000000E+00   0.00000000000000E+00  -9.57689192036563E-19
     -3.26728719032413E-35  -9.57689192036563E-19   3.52754743760712E-16   0.00000000000000E+00   0.00000000000000E+00
      0.00000000000000E+00   0.00000000000000E+00  -3.85860802141177E-21  -6.63956649697190E-35  -3.85860802141183E-21
      5.31320534594329E-16  -5.00000000000000E-01  -5.00000000000000E-01   0.00000000000000E+00   0.00000000000000E+00
      0.00000000000000E+00   0.00000000000000E+00   0.00000000000000E+00  -3.17375758194942E-16
      0.00000000000000E+00
      0.00000000000000E+00   0.00000000000000E+00   0.00000000000000E+00   0.00000000000000E+00  -6.72799153196380E-18
     -2.57453235883451E-31  -6.72799153196406E-18   3.52754743577643E-16   0.00000000000000E+00   0.00000000000000E+00
      0.00000000000000E+00   0.00000000000000E+00   5.72283203762882E-18  -2.57492166610801E-31   5.72283203762856E-18
      5.31320534410090E-16  -5.00000000000000E-01  -5.00000000000000E-01   0.00000000000000E+00   0.00000000000000E+00
      0.00000000000000E+00   0.00000000000000E+00   0.00000000000000E+00  -3.17375758225355E-16
      1.00000000000000E-03
      0.00000000000000E+00   0.00000000000000E+00   0.00000000000000E+00   0.00000000000000E+00   5.65192926375132E-18
     -6.23255550819276E-22   5.65130600820050E-18   3.52658776903690E-16   1.00000000000000E-03   1.00000000000000E-03
      0.00000000000000E+00   0.00000000000000E+00  -5.63805746511600E-18   3.40878743527547E-22  -5.63771658637248E-18
      5.31508498712802E-16  -5.00000000000000E-01  -5.00000000000000E-01   0.00000000000000E+00   0.00000000000000E+00
      0.00000000000000E+00   0.00000000000000E+00   0.00000000000000E+00  -3.18121674433890E-16
      2.17333333333333E-03
      0.00000000000000E+00   0.00000000000000E+00   0.00000000000000E+00   0.00000000000000E+00  -3.42366131816627E-17
     -1.37573230749495E-21  -3.42379889139702E-17   3.52545908747642E-16   2.17333333333333E-03   2.17333333333333E-03
      0.00000000000000E+00   0.00000000000000E+00  -1.49624801389418E-17   7.33736736901362E-22  -1.49617464022049E-17
      5.31728827870027E-16  -5.00000000000000E-01  -5.00000000000000E-01   0.00000000000000E+00   0.00000000000000E+00
      0.00000000000000E+00   0.00000000000000E+00   0.00000000000000E+00  -3.18998286031112E-16
      3.58133333333333E-03
      0.00000000000000E+00   0.00000000000000E+00   0.00000000000000E+00   0.00000000000000E+00   4.45359711412892E-18
     -2.30990236631765E-21   4.45128721176260E-18   3.52410088382342E-16   3.58133333333333E-03   3.58133333333333E-03
      0.00000000000000E+00   0.00000000000000E+00   5.89394117071051E-18   1.19527460668995E-21   5.89513644531720E-18
      5.31992917879071E-16  -5.00000000000000E-01  -5.00000000000000E-01   0.00000000000000E+00   0.00000000000000E+00
      0.00000000000000E+00   0.00000000000000E+00   0.00000000000000E+00  -3.20052202056222E-16
      5.25216000000000E-03
      0.00000000000000E+00   0.00000000000000E+00   0.00000000000000E+00   0.00000000000000E+00  -9.12657618310328E-18
     -3.46429255096312E-21  -9.13004047565424E-18   3.52248389298680E-16   5.25216000000000E-03   5.25216000000000E-03
      0.00000000000000E+00   0.00000000000000E+00  -1.63560819522451E-18   1.72939344033102E-21  -1.63387880178418E-18
      5.32305883522153E-16  -5.00000000000000E-01  -5.00000000000000E-01   0.00000000000000E+00   0.00000000000000E+00
      0.00000000000000E+00   0.00000000000000E+00   0.00000000000000E+00  -3.21305580124465E-16
      7.23487431111111E-03
      0.00000000000000E+00   0.00000000000000E+00   0.00000000000000E+00   0.00000000000000E+00   1.18914752439178E-18
     -4.90169528650078E-21   1.18424582910528E-18   3.52055779510596E-16   7.23487431111111E-03   7.23487431111111E-03
      0.00000000000000E+00   0.00000000000000E+00   2.27809033485108E-18   2.34476456336503E-21   2.28043509941445E-18
      5.32676689788591E-16  -5.00000000000000E-01  -5.00000000000000E-01   0.00000000000000E+00   0.00000000000000E+00
      0.00000000000000E+00   0.00000000000000E+00   0.00000000000000E+00  -3.22796671394238E-16
      9.58769529362963E-03
      0.00000000000000E+00   0.00000000000000E+00   0.00000000000000E+00   0.00000000000000E+00  -1.16428460296564E-17
     -6.70769823705483E-21  -1.16495537278935E-17   3.51826216841975E-16   9.58769529362963E-03   9.58769529362963E-03
      0.00000000000000E+00   0.00000000000000E+00  -5.28180761994377E-19   3.05009685708945E-21  -5.25130665137288E-19
      5.33115921879531E-16  -5.00000000000000E-01  -5.00000000000000E-01   0.00000000000000E+00   0.00000000000000E+00
      0.00000000000000E+00   0.00000000000000E+00   0.00000000000000E+00  -3.24571202135728E-16
      1.23797095262183E-02
      0.00000000000000E+00   0.00000000000000E+00   0.00000000000000E+00   0.00000000000000E+00  -1.30537256939389E-17
     -9.00121576940390E-21  -1.30627269097083E-17   3.51552438688564E-16   1.23797095262183E-02   1.23797095262183E-02
      0.00000000000000E+00   0.00000000000000E+00   1.46723239827709E-17   3.85372420410708E-21   1.46761777069750E-17
      5.33636073177916E-16  -5.00000000000000E-01  -5.00000000000000E-01   0.00000000000000E+00   0.00000000000000E+00
      0.00000000000000E+00   0.00000000000000E+00   0.00000000000000E+00  -3.26683854676887E-16
      1.56928997488901E-02
      0.00000000000000E+00   0.00000000000000E+00   0.00000000000000E+00   0.00000000000000E+00  -1.06745659905259E-17
     -1.19509507746213E-20  -1.06865169413005E-17   3.51225715376457E-16   1.56928997488901E-02   1.56928997488901E-02
      0.00000000000000E+00   0.00000000000000E+00   4.63460885684074E-18   4.76309587664817E-21   4.63937195271739E-18
      5.34251892923239E-16  -5.00000000000000E-01  -5.00000000000000E-01   0.00000000000000E+00   0.00000000000000E+00
      0.00000000000000E+00   0.00000000000000E+00   0.00000000000000E+00  -3.29199978712965E-16
      1.96245521464607E-02
      0.00000000000000E+00   0.00000000000000E+00   0.00000000000000E+00   0.00000000000000E+00  -2.33835517675354E-17
     -1.58019550998826E-20  -2.33993537226353E-17   3.50835550122770E-16   1.96245521464607E-02   1.96245521464607E-02
      0.00000000000000E+00   0.00000000000000E+00   9.38675611715985E-18   5.78409638621506E-21   9.39254021354607E-18
      5.34980795119778E-16  -5.00000000000000E-01  -5.00000000000000E-01   0.00000000000000E+00   0.00000000000000E+00
      0.00000000000000E+00   0.00000000000000E+00   0.00000000000000E+00  -3.32197638357972E-16
      2.42901129915778E-02
      0.00000000000000E+00   0.00000000000000E+00   0.00000000000000E+00   0.00000000000000E+00  -2.20240040550542E-17
     -2.09193779971443E-20  -2.20449234330513E-17   3.50369343801939E-16   2.42901129915778E-02   2.42901129915778E-02
      0.00000000000000E+00   0.00000000000000E+00   1.15459251572736E-17   6.92032937558637E-21   1.15528454866492E-17
      5.35843370454404E-16  -5.00000000000000E-01  -5.00000000000000E-01   0.00000000000000E+00   0.00000000000000E+00
      0.00000000000000E+00   0.00000000000000E+00   0.00000000000000E+00  -3.35769849483608E-16
      2.98265785277835E-02
      0.00000000000000E+00   0.00000000000000E+00   0.00000000000000E+00   0.00000000000000E+00  -1.67186515891321E-17
     -2.78627404787026E-20  -1.67465143296108E-17   3.49812031871042E-16   2.98265785277835E-02   2.98265785277835E-02
      0.00000000000000E+00   0.00000000000000E+00   1.46533693201083E-17   8.17239156463468E-21   1.46615417116729E-17
      5.36864035934758E-16  -5.00000000000000E-01  -5.00000000000000E-01   0.00000000000000E+00   0.00000000000000E+00
      0.00000000000000E+00   0.00000000000000E+00   0.00000000000000E+00  -3.40026935446870E-16
      3.63226980902647E-02
      0.00000000000000E+00   0.00000000000000E+00   0.00000000000000E+00   0.00000000000000E+00  -2.04475270548608E-17
     -3.73978615007782E-20  -2.04849249163616E-17   3.49153250457653E-16   3.63226980902647E-02   3.63226980902647E-02
      0.00000000000000E+00   0.00000000000000E+00   1.49010773922695E-17   9.52260253234935E-21   1.49105999948018E-17
      5.38058344778433E-16  -5.00000000000000E-01  -5.00000000000000E-01   0.00000000000000E+00   0.00000000000000E+00
      0.00000000000000E+00   0.00000000000000E+00   0.00000000000000E+00  -3.45041591026140E-16
      4.39448117102428E-02
      0.00000000000000E+00   0.00000000000000E+00   0.00000000000000E+00   0.00000000000000E+00  -3.43563828003178E-17
     -5.08380447789829E-20  -3.44072208450968E-17   3.48374878892148E-16   4.39448117102428E-02   4.39448117102428E-02
      0.00000000000000E+00   0.00000000000000E+00   2.15671177026992E-17   1.09632114645700E-20   2.15780809141638E-17
      5.39456450629125E-16  -5.00000000000000E-01  -5.00000000000000E-01   0.00000000000000E+00   0.00000000000000E+00
      0.00000000000000E+00   0.00000000000000E+00   0.00000000000000E+00  -3.50943753772421E-16
      5.28880916910170E-02
      0.00000000000000E+00   0.00000000000000E+00   0.00000000000000E+00   0.00000000000000E+00  -3.66750690389253E-17
     -7.03519098361076E-20  -3.67454209487614E-17   3.47456365399592E-16   5.28880916910170E-02   5.28880916910170E-02
      0.00000000000000E+00   0.00000000000000E+00   2.46500808935921E-17   1.24830406097947E-20   2.46625639342019E-17
      5.41094644767397E-16  -5.00000000000000E-01  -5.00000000000000E-01   0.00000000000000E+00   0.00000000000000E+00
      0.00000000000000E+00   0.00000000000000E+00   0.00000000000000E+00  -3.57879421791183E-16
      6.33815402017921E-02
      0.00000000000000E+00   0.00000000000000E+00   0.00000000000000E+00   0.00000000000000E+00  -3.66826898566553E-17
     -9.96368569018181E-20  -3.67823267135571E-17   3.46375177568872E-16   6.33815402017921E-02   6.33815402017921E-02
      0.00000000000000E+00   0.00000000000000E+00   4.26917987929327E-17   1.40674879201583E-20   4.27058662808529E-17
      5.43017344703970E-16  -5.00000000000000E-01  -5.00000000000000E-01   0.00000000000000E+00   0.00000000000000E+00
      0.00000000000000E+00   0.00000000000000E+00   0.00000000000000E+00  -3.66007225950989E-16
      7.56938531211016E-02
      0.00000000000000E+00   0.00000000000000E+00   0.00000000000000E+00   0.00000000000000E+00  -5.66506236751393E-17
     -1.45192422125408E-19  -5.67958160972647E-17   3.45108106887433E-16   7.56938531211016E-02   7.56938531211016E-02
      0.00000000000000E+00   0.00000000000000E+00   4.37770247345789E-17   1.56983864961126E-20   4.37927231210750E-17
      5.45280202153239E-16  -5.00000000000000E-01  -5.00000000000000E-01   0.00000000000000E+00   0.00000000000000E+00
      0.00000000000000E+00   0.00000000000000E+00   0.00000000000000E+00  -3.75489367004377E-16
      9.01403002797580E-02
      0.00000000000000E+00   0.00000000000000E+00   0.00000000000000E+00   0.00000000000000E+00  -5.72011895395955E-17
     -2.18727697594786E-19  -5.74199172371903E-17   3.43634314539162E-16   9.01403002797580E-02   9.01403002797580E-02
      0.00000000000000E+00   0.00000000000000E+00   6.56290492640782E-17   1.73532950135477E-20   6.56464025590917E-17
      5.47955242457370E-16  -5.00000000000000E-01  -5.00000000000000E-01   0.00000000000000E+00   0.00000000000000E+00
      0.00000000000000E+00   0.00000000000000E+00   0.00000000000000E+00  -3.86471334146505E-16
      1.06898178983799E-01
      0.00000000000000E+00   0.00000000000000E+00   0.00000000000000E+00   0.00000000000000E+00  -8.60582651608511E-17
     -3.39896374412245E-19  -8.63981615352633E-17   3.41960455130975E-16   1.06898178983799E-01   1.06898178983799E-01
      0.00000000000000E+00   0.00000000000000E+00   6.62952178030380E-17   1.89855395745172E-20   6.63142033426125E-17
      5.51102888731438E-16  -5.00000000000000E-01  -5.00000000000000E-01   0.00000000000000E+00   0.00000000000000E+00
      0.00000000000000E+00   0.00000000000000E+00   0.00000000000000E+00  -3.98901408203841E-16
      1.26337318280487E-01
      0.00000000000000E+00   0.00000000000000E+00   0.00000000000000E+00   0.00000000000000E+00  -9.84297328304331E-17
     -5.43629529455218E-19  -9.89733623598883E-17   3.40096972173830E-16   1.26337318280487E-01   1.26337318280487E-01
      0.00000000000000E+00   0.00000000000000E+00   1.04489956948387E-16   2.05562449307363E-20   1.04510513193317E-16
      5.54842904750758E-16  -5.00000000000000E-01  -5.00000000000000E-01   0.00000000000000E+00   0.00000000000000E+00
      0.00000000000000E+00   0.00000000000000E+00   0.00000000000000E+00  -4.12718811829632E-16
      1.48627531340690E-01
      0.00000000000000E+00   0.00000000000000E+00   0.00000000000000E+00   0.00000000000000E+00  -1.39621571671130E-16
     -8.81612515458283E-19  -1.40503184186588E-16   3.38107075530411E-16   1.48627531340690E-01   1.48627531340690E-01
      0.00000000000000E+00   0.00000000000000E+00   1.30767070296978E-16   2.19874069117938E-20   1.30789057703890E-16
      5.59289583008141E-16  -5.00000000000000E-01  -5.00000000000000E-01   0.00000000000000E+00   0.00000000000000E+00
      0.00000000000000E+00   0.00000000000000E+00   0.00000000000000E+00  -4.27504916988748E-16
      1.74186975649722E-01
      0.00000000000000E+00   0.00000000000000E+00   0.00000000000000E+00   0.00000000000000E+00  -1.81587453523638E-16
     -1.42376661535645E-18  -1.83011220138994E-16   3.36068792228763E-16   1.74186975649722E-01   1.74186975649722E-01
      0.00000000000000E+00   0.00000000000000E+00   1.66472638093856E-16   2.31943848402333E-20   1.66495832478696E-16
      5.64641559385181E-16  -5.00000000000000E-01  -5.00000000000000E-01   0.00000000000000E+00   0.00000000000000E+00
      0.00000000000000E+00   0.00000000000000E+00   0.00000000000000E+00  -4.42776676933715E-16
      2.03154345866625E-01
      0.00000000000000E+00   0.00000000000000E+00   0.00000000000000E+00   0.00000000000000E+00  -2.35308213337588E-16
     -2.22426352707666E-18  -2.37532476864665E-16   3.34107291681459E-16   2.03154345866625E-01   2.03154345866625E-01
      0.00000000000000E+00   0.00000000000000E+00   2.21188645312511E-16   2.40825626774588E-20   2.21212727875189E-16
      5.71059773416179E-16  -5.00000000000000E-01  -5.00000000000000E-01   0.00000000000000E+00   0.00000000000000E+00
      0.00000000000000E+00   0.00000000000000E+00   0.00000000000000E+00  -4.57737493185765E-16
      2.35984032112448E-01
      0.00000000000000E+00   0.00000000000000E+00   0.00000000000000E+00   0.00000000000000E+00  -3.19685829486066E-16
     -3.28568842907906E-18  -3.22971517915145E-16   3.32321050634789E-16   2.35984032112448E-01   2.35984032112448E-01
      0.00000000000000E+00   0.00000000000000E+00   2.90576139484946E-16   2.46351290681943E-20   2.90600774614014E-16
      5.78764119649419E-16  -5.00000000000000E-01  -5.00000000000000E-01   0.00000000000000E+00   0.00000000000000E+00
      0.00000000000000E+00   0.00000000000000E+00   0.00000000000000E+00  -4.71798815617493E-16
      2.73191009857714E-01
      0.00000000000000E+00   0.00000000000000E+00   0.00000000000000E+00   0.00000000000000E+00  -3.90248049620650E-16
     -4.51116495149458E-18  -3.94759214572145E-16   3.30781669609339E-16   2.73191009857714E-01   2.73191009857714E-01
      0.00000000000000E+00   0.00000000000000E+00   3.95626350687450E-16   2.49242041746638E-20   3.95651274891625E-16
      5.87958847296993E-16  -5.00000000000000E-01  -5.00000000000000E-01   0.00000000000000E+00   0.00000000000000E+00
      0.00000000000000E+00   0.00000000000000E+00   0.00000000000000E+00  -4.84544658774724E-16
      3.14862824932413E-01
      0.00000000000000E+00   0.00000000000000E+00   0.00000000000000E+00   0.00000000000000E+00  -5.10126368659998E-16
     -5.70115453073322E-18  -5.15827523190731E-16   3.29526680297279E-16   3.14862824932413E-01   3.14862824932413E-01
      0.00000000000000E+00   0.00000000000000E+00   4.98487807206961E-16   2.50645435487428E-20   4.98512871750510E-16
      5.98685316877478E-16  -5.00000000000000E-01  -5.00000000000000E-01   0.00000000000000E+00   0.00000000000000E+00
      0.00000000000000E+00   0.00000000000000E+00   0.00000000000000E+00  -4.95725632902581E-16
      3.61535257816075E-01
      0.00000000000000E+00   0.00000000000000E+00   0.00000000000000E+00   0.00000000000000E+00  -6.64100963392106E-16
     -6.68517246968010E-18  -6.70786135861786E-16   3.28511013849411E-16   3.61535257816075E-01   3.61535257816075E-01
      0.00000000000000E+00   0.00000000000000E+00   6.33724270456180E-16   2.51444327244705E-20   6.33749414888905E-16
      6.11027072587987E-16  -5.00000000000000E-01  -5.00000000000000E-01   0.00000000000000E+00   0.00000000000000E+00
      0.00000000000000E+00   0.00000000000000E+00   0.00000000000000E+00  -5.05630177506476E-16
      4.14430681750892E-01
      0.00000000000000E+00   0.00000000000000E+00   0.00000000000000E+00   0.00000000000000E+00  -8.47880359402612E-16
     -7.41567209896419E-18  -8.55296031501576E-16   3.27630791688333E-16   4.14430681750892E-01   4.14430681750892E-01
      0.00000000000000E+00   0.00000000000000E+00   8.43424890040464E-16   2.52117075147818E-20   8.43450101747979E-16
      6.25200185199903E-16  -5.00000000000000E-01  -5.00000000000000E-01   0.00000000000000E+00   0.00000000000000E+00
      0.00000000000000E+00   0.00000000000000E+00   0.00000000000000E+00  -5.14952721225152E-16
      4.74378828877018E-01
      0.00000000000000E+00   0.00000000000000E+00   0.00000000000000E+00   0.00000000000000E+00  -1.11871568708738E-15
     -7.93633065035067E-18  -1.12665201773773E-15   3.26779766714964E-16   4.74378828877018E-01   4.74378828877018E-01
      0.00000000000000E+00   0.00000000000000E+00   1.12583060773390E-15   2.52930539246018E-20   1.12585590078783E-15
      6.41296435381897E-16  -5.00000000000000E-01  -5.00000000000000E-01   0.00000000000000E+00   0.00000000000000E+00
      0.00000000000000E+00   0.00000000000000E+00   0.00000000000000E+00  -5.24373708266995E-16
      5.42320062286628E-01
      0.00000000000000E+00   0.00000000000000E+00   0.00000000000000E+00   0.00000000000000E+00  -1.57966640040696E-15
     -8.29763576380860E-18  -1.58796403617077E-15   3.25878351140652E-16   5.42320062286628E-01   5.42320062286628E-01
      0.00000000000000E+00   0.00000000000000E+00   1.59130377778805E-15   2.53978421388243E-20   1.59132917563019E-15
      6.59446950986058E-16  -5.00000000000000E-01  -5.00000000000000E-01   0.00000000000000E+00   0.00000000000000E+00
      0.00000000000000E+00   0.00000000000000E+00   0.00000000000000E+00  -5.34436303931201E-16
      6.19320126817519E-01
      0.00000000000000E+00   0.00000000000000E+00   0.00000000000000E+00   0.00000000000000E+00  -2.42848205485119E-15
     -8.56671207244583E-18  -2.43704876692364E-15   3.24855586274556E-16   6.19320126817519E-01   6.19320126817519E-01
      0.00000000000000E+00   0.00000000000000E+00   2.42826789321230E-15   2.55180781655843E-20   2.42829341129047E-15
      6.79802882445247E-16  -5.00000000000000E-01  -5.00000000000000E-01   0.00000000000000E+00   0.00000000000000E+00
      0.00000000000000E+00   0.00000000000000E+00   0.00000000000000E+00  -5.45693430974226E-16
      7.07613534146274E-01
      0.00000000000000E+00   0.00000000000000E+00   0.00000000000000E+00   0.00000000000000E+00  -4.07669148679346E-15
     -8.79409278108075E-18  -4.08548557957454E-15   3.23646074810417E-16   7.07613534146274E-01   7.07613534146274E-01
      0.00000000000000E+00   0.00000000000000E+00   4.09060769573992E-15   2.56530201724323E-20   4.09063334876009E-15
      7.02817753680709E-16  -5.00000000000000E-01  -5.00000000000000E-01   0.00000000000000E+00   0.00000000000000E+00
      0.00000000000000E+00   0.00000000000000E+00   0.00000000000000E+00  -5.58795548053260E-16
      8.08856641216580E-01
      0.00000000000000E+00   0.00000000000000E+00   0.00000000000000E+00   0.00000000000000E+00  -7.67692852537024E-15
     -9.01093787358321E-18  -7.68593946324382E-15   3.22208301413629E-16   8.08856641216580E-01   8.08856641216580E-01
      0.00000000000000E+00   0.00000000000000E+00   7.66572727747398E-15   2.58045392630335E-20   7.66575308201325E-15
      7.28805094188633E-16  -5.00000000000000E-01  -5.00000000000000E-01   0.00000000000000E+00   0.00000000000000E+00
      0.00000000000000E+00   0.00000000000000E+00   0.00000000000000E+00  -5.74223218074408E-16
      9.26298645418134E-01
      0.00000000000000E+00   0.00000000000000E+00   0.00000000000000E+00   0.00000000000000E+00  -1.61497383985515E-14
     -9.20690101657384E-18  -1.61589452995681E-14   3.20503979978278E-16   9.26298645418134E-01   9.26298645418134E-01
      0.00000000000000E+00   0.00000000000000E+00   1.61421101198166E-14   2.59769895514527E-20   1.61421360968061E-14
      7.58551336466998E-16  -5.00000000000000E-01  -5.00000000000000E-01   0.00000000000000E+00   0.00000000000000E+00
      0.00000000000000E+00   0.00000000000000E+00   0.00000000000000E+00  -5.92461680884768E-16
      1.00000000000000E+00
      0.00000000000000E+00   0.00000000000000E+00   0.00000000000000E+00   0.00000000000000E+00  -2.56684937981061E-14
     -9.30695376486269E-18  -2.56778007518710E-14   3.19424055859750E-16   1.00000000000000E+00   1.00000000000000E+00
      0.00000000000000E+00   0.00000000000000E+00   2.56851658830417E-14   2.60834980938918E-20   2.56851919665398E-14
      7.77072687512062E-16  -5.00000000000000E-01  -5.00000000000000E-01   0.00000000000000E+00   0.00000000000000E+00
      0.00000000000000E+00   0.00000000000000E+00   0.00000000000000E+00  -6.03994577311291E-16
      0.00000000000000E+00
      0.00000000000000E+00   0.00000000000000E+00   0.00000000000000E+00   0.00000000000000E+00  -2.56708630728557E-14
     -9.30692984274887E-18  -2.56801700026984E-14   3.19424064908146E-16   1.00000000000000E+00   1.00000000000000E+00
      0.00000000000000E+00   0.00000000000000E+00   2.56809847802586E-14   2.60834981520141E-20   2.56810108637567E-14
      7.77072693035474E-16  -5.00000000000000E-01  -5.00000000000000E-01   0.00000000000000E+00   0.00000000000000E+00
      0.00000000000000E+00   0.00000000000000E+00   0.00000000000000E+00  -6.03994517144048E-16
      1.00000000000000E-03
      0.00000000000000E+00   0.00000000000000E+00   0.00000000000000E+00   0.00000000000000E+00  -2.57390640027286E-14
     -9.27282784081593E-18  -2.57483368305695E-14   3.19402052761786E-16   1.00000000000000E+00   1.00000000000000E+00
      0.00000000000000E+00   0.00000000000000E+00   2.57495031600179E-14   2.60830726741891E-20   2.57495292430906E-14
      7.76774270758284E-16  -4.98000000000000E-01  -4.98000000000000E-01   0.00000000000000E+00   0.00000000000000E+00
      0.00000000000000E+00   0.00000000000000E+00   0.00000000000000E+00  -6.01754914493034E-16
      2.14666666666667E-03
      0.00000000000000E+00   0.00000000000000E+00   0.00000000000000E+00   0.00000000000000E+00  -2.58009104960442E-14
     -9.23362599567924E-18  -2.58101441220398E-14   3.19376757212194E-16   1.00000000000000E+00   1.00000000000000E+00
      0.00000000000000E+00   0.00000000000000E+00   2.58121441978856E-14   2.60825844293187E-20   2.58121702804700E-14
      7.76431931991630E-16  -4.95706666666667E-01  -4.95706666666667E-01   0.00000000000000E+00   0.00000000000000E+00
      0.00000000000000E+00   0.00000000000000E+00   0.00000000000000E+00  -5.99186988631302E-16
      3.52266666666667E-03
      0.00000000000000E+00   0.00000000000000E+00   0.00000000000000E+00   0.00000000000000E+00  -2.58772578831911E-14
     -9.18640616585107E-18  -2.58864442893570E-14   3.19346339417572E-16   1.00000000000000E+00   1.00000000000000E+00
      0.00000000000000E+00   0.00000000000000E+00   2.58753404404637E-14   2.60819981387049E-20   2.58753665224618E-14
      7.76020931942051E-16  -4.92954666666667E-01  -4.92954666666667E-01   0.00000000000000E+00   0.00000000000000E+00
      0.00000000000000E+00   0.00000000000000E+00   0.00000000000000E+00  -5.96105580443497E-16
      5.15552000000000E-03
      0.00000000000000E+00   0.00000000000000E+00   0.00000000000000E+00   0.00000000000000E+00  -2.59677679289278E-14
     -9.12996850465164E-18  -2.59768978974325E-14   3.19310211929782E-16   1.00000000000000E+00   1.00000000000000E+00
      0.00000000000000E+00   0.00000000000000E+00   2.59705086790310E-14   2.60813022550245E-20   2.59705347603333E-14
      7.75532983211228E-16  -4.89688960000000E-01  -4.89688960000000E-01   0.00000000000000E+00   0.00000000000000E+00
      0.00000000000000E+00   0.00000000000000E+00   0.00000000000000E+00  -5.92448711665362E-16
      7.09317262222222E-03
      0.00000000000000E+00   0.00000000000000E+00   0.00000000000000E+00   0.00000000000000E+00  -2.60928194318999E-14
     -9.06249477610778E-18  -2.61018819266760E-14   3.19267269985062E-16   1.00000000000000E+00   1.00000000000000E+00
      0.00000000000000E+00   0.00000000000000E+00   2.60937352950475E-14   2.60804761555599E-20   2.60937613755237E-14
      7.74953629178784E-16  -4.85813654755556E-01  -4.85813654755556E-01   0.00000000000000E+00   0.00000000000000E+00
      0.00000000000000E+00   0.00000000000000E+00   0.00000000000000E+00  -5.88108984504392E-16
      9.39252040059259E-03
      0.00000000000000E+00   0.00000000000000E+00   0.00000000000000E+00   0.00000000000000E+00  -2.62303810807658E-14
     -8.98173899586961E-18  -2.62393628197617E-14   3.19216204610077E-16   1.00000000000000E+00   1.00000000000000E+00
      0.00000000000000E+00   0.00000000000000E+00   2.62365945009760E-14   2.60794954556038E-20   2.62366205804715E-14
      7.74265697526345E-16  -4.81214959198815E-01  -4.81214959198815E-01   0.00000000000000E+00   0.00000000000000E+00
      0.00000000000000E+00   0.00000000000000E+00   0.00000000000000E+00  -5.82958815006021E-16
      1.21210797642588E-02
      0.00000000000000E+00   0.00000000000000E+00   0.00000000000000E+00   0.00000000000000E+00  -2.63949809989009E-14
     -8.88491757387664E-18  -2.64038659164748E-14   3.19155463038965E-16   1.00000000000000E+00   1.00000000000000E+00
      0.00000000000000E+00   0.00000000000000E+00   2.63880391163724E-14   2.60783313518231E-20   2.63880651947038E-14
      7.73448790481221E-16  -4.75757840471482E-01  -4.75757840471482E-01   0.00000000000000E+00   0.00000000000000E+00
      0.00000000000000E+00   0.00000000000000E+00   0.00000000000000E+00  -5.76846605114157E-16
      1.53589702091426E-02
      0.00000000000000E+00   0.00000000000000E+00   0.00000000000000E+00   0.00000000000000E+00  -2.65758792073072E-14
     -8.76862321815815E-18  -2.65846478305253E-14   3.19083178708980E-16   1.00000000000000E+00   1.00000000000000E+00
      0.00000000000000E+00   0.00000000000000E+00   2.65850274461966E-14   2.60769497316883E-20   2.65850535231463E-14
      7.72478667990126E-16  -4.69282059581715E-01  -4.69282059581715E-01   0.00000000000000E+00   0.00000000000000E+00
      0.00000000000000E+00   0.00000000000000E+00   0.00000000000000E+00  -5.69592313724016E-16
      1.92012668704048E-02
      0.00000000000000E+00   0.00000000000000E+00   0.00000000000000E+00   0.00000000000000E+00  -2.68173702383881E-14
     -8.62860696071569E-18  -2.68259988453488E-14   3.18997125048842E-16   1.00000000000000E+00   1.00000000000000E+00
      0.00000000000000E+00   0.00000000000000E+00   2.68034023490084E-14   2.60753104140972E-20   2.68034284243188E-14
      7.71326542332948E-16  -4.61597466259190E-01  -4.61597466259190E-01   0.00000000000000E+00   0.00000000000000E+00
      0.00000000000000E+00   0.00000000000000E+00   0.00000000000000E+00  -5.60981890592275E-16
      2.37607922417692E-02
      0.00000000000000E+00   0.00000000000000E+00   0.00000000000000E+00   0.00000000000000E+00  -2.70854342840014E-14
     -8.45970539671146E-18  -2.70938939893981E-14   3.18894574012688E-16   1.00000000000000E+00   1.00000000000000E+00
      0.00000000000000E+00   0.00000000000000E+00   2.70754240124655E-14   2.60733657881595E-20   2.70754500858313E-14
      7.69958195862044E-16  -4.52478415516462E-01  -4.52478415516462E-01   0.00000000000000E+00   0.00000000000000E+00
      0.00000000000000E+00   0.00000000000000E+00   0.00000000000000E+00  -5.50761146305241E-16
      2.91106353441702E-02
      0.00000000000000E+00   0.00000000000000E+00   0.00000000000000E+00   0.00000000000000E+00  -2.73995990844791E-14
     -8.25738022122414E-18  -2.74078564647003E-14   3.18773769080307E-16   1.00000000000000E+00   1.00000000000000E+00
      0.00000000000000E+00   0.00000000000000E+00   2.73948488747229E-14   2.60710869442129E-20   2.73948749458098E-14
      7.68351373873226E-16  -4.41778729311660E-01  -4.41778729311660E-01   0.00000000000000E+00   0.00000000000000E+00
      0.00000000000000E+00   0.00000000000000E+00   0.00000000000000E+00  -5.38762912182702E-16
      3.53877845843206E-02
      0.00000000000000E+00   0.00000000000000E+00   0.00000000000000E+00   0.00000000000000E+00  -2.77756471472645E-14
     -8.01428040025852E-18  -2.77836614276648E-14   3.18631338926037E-16   1.00000000000000E+00   1.00000000000000E+00