DF-ISE text

Info {
  version   = 1.0
  type      = xyplot
  datasets  = [
    "time"
    "S OuterVoltage" "S InnerVoltage" "S QuasiFermiPotential" "S DisplacementCurrent" "S eCurrent"
    "S hCurrent" "S TotalCurrent" "S Charge" "D OuterVoltage" "D InnerVoltage"
    "D QuasiFermiPotential" "D DisplacementCurrent" "D eCurrent" "D hCurrent" "D TotalCurrent"
    "D Charge" "G OuterVoltage" "G InnerVoltage" "G QuasiFermiPotential" "G DisplacementCurrent"
    "G eCurrent" "G hCurrent" "G TotalCurrent" "G Charge" ]
  functions = [
    Time
    OuterVoltage InnerVoltage QuasiFermiPotential DisplacementCurrent eCurrent
    hCurrent TotalCurrent Charge OuterVoltage InnerVoltage
    QuasiFermiPotential DisplacementCurrent eCurrent hCurrent TotalCurrent
    Charge OuterVoltage InnerVoltage QuasiFermiPotential DisplacementCurrent
    eCurrent hCurrent TotalCurrent Charge ]
}

Data {
      0.00000000000000E+00
      0.00000000000000E+00   0.00000000000000E+00   0.00000000000000E+00   0.00000000000000E+00  -4.89582266320526E-19
     -7.94475192518223E-34  -4.89582266320527E-19   6.72571091156594E-16   0.00000000000000E+00   0.00000000000000E+00
      0.00000000000000E+00   0.00000000000000E+00   1.50541819734582E-26  -7.97124818654187E-34   1.50541811763334E-26
      8.57036663164904E-16  -5.00000000000000E-01  -5.00000000000000E-01   0.00000000000000E+00   0.00000000000000E+00
      0.00000000000000E+00   0.00000000000000E+00   0.00000000000000E+00  -3.61243089292153E-16
      0.00000000000000E+00
      0.00000000000000E+00   0.00000000000000E+00   0.00000000000000E+00   0.00000000000000E+00   9.79163604235719E-19
     -2.39918604438859E-30   9.79163604233320E-19   6.72571089047208E-16   0.00000000000000E+00   0.00000000000000E+00
      0.00000000000000E+00   0.00000000000000E+00  -9.75315784060094E-19  -2.40829027722514E-30  -9.75315784062502E-19
      8.57036660761327E-16  -5.00000000000000E-01  -5.00000000000000E-01   0.00000000000000E+00   0.00000000000000E+00
      0.00000000000000E+00   0.00000000000000E+00   0.00000000000000E+00  -3.61243089296431E-16
      1.00000000000000E-03
      0.00000000000000E+00   0.00000000000000E+00   0.00000000000000E+00   0.00000000000000E+00  -7.00711974845296E-18
     -7.34594430106648E-22  -7.00785434288307E-18   6.72351037530812E-16   1.00000000000000E-03   1.00000000000000E-03
      0.00000000000000E+00   0.00000000000000E+00   3.10497975732261E-18   7.23436423462166E-22   3.10570319374607E-18
      8.57417534649524E-16  -5.00000000000000E-01  -5.00000000000000E-01   0.00000000000000E+00   0.00000000000000E+00
      0.00000000000000E+00   0.00000000000000E+00   0.00000000000000E+00  -3.61783467452181E-16
      2.17333333333333E-03
      0.00000000000000E+00   0.00000000000000E+00   0.00000000000000E+00   0.00000000000000E+00  -5.97232221464307E-18
     -1.60361137054303E-21  -5.97392582601361E-18   6.72095917409059E-16   2.17333333333333E-03   2.17333333333333E-03
      0.00000000000000E+00   0.00000000000000E+00   7.95379898374641E-18   1.56498013979397E-21   7.95536396388620E-18
      8.57867685015077E-16  -5.00000000000000E-01  -5.00000000000000E-01   0.00000000000000E+00   0.00000000000000E+00
      0.00000000000000E+00   0.00000000000000E+00   0.00000000000000E+00  -3.62411944493080E-16
      3.56568888888889E-03
      0.00000000000000E+00   0.00000000000000E+00   0.00000000000000E+00   0.00000000000000E+00  -1.16622517806550E-17
     -2.64431047858045E-21  -1.16648960911335E-17   6.71797488779306E-16   3.56568888888889E-03   3.56568888888889E-03
      0.00000000000000E+00   0.00000000000000E+00   1.55918988735427E-17   2.55297157957684E-21   1.55944518451222E-17
      8.58406419119124E-16  -5.00000000000000E-01  -5.00000000000000E-01   0.00000000000000E+00   0.00000000000000E+00
      0.00000000000000E+00   0.00000000000000E+00   0.00000000000000E+00  -3.63149928408919E-16
      5.21795081481481E-03
      0.00000000000000E+00   0.00000000000000E+00   0.00000000000000E+00   0.00000000000000E+00  -1.82668973343827E-17
     -3.89179544726876E-21  -1.82707891298300E-17   6.71449437960607E-16   5.21795081481481E-03   5.21795081481481E-03
      0.00000000000000E+00   0.00000000000000E+00   2.21825358344034E-17   3.70971447496482E-21   2.21862455488784E-17
      8.59052113352348E-16  -5.00000000000000E-01  -5.00000000000000E-01   0.00000000000000E+00   0.00000000000000E+00
      0.00000000000000E+00   0.00000000000000E+00   0.00000000000000E+00  -3.64014662007441E-16
      7.17863496691358E-03
      0.00000000000000E+00   0.00000000000000E+00   0.00000000000000E+00   0.00000000000000E+00  -2.92966828290127E-17
     -5.38838328659821E-21  -2.93020712122993E-17   6.71044995494506E-16   7.17863496691358E-03   7.17863496691358E-03
      0.00000000000000E+00   0.00000000000000E+00   2.87725469339237E-17   5.05921637616312E-21   2.87776061502999E-17
      8.59827306259820E-16  -5.00000000000000E-01  -5.00000000000000E-01   0.00000000000000E+00   0.00000000000000E+00
      0.00000000000000E+00   0.00000000000000E+00   0.00000000000000E+00  -3.65025305128986E-16
      9.50531349407078E-03
      0.00000000000000E+00   0.00000000000000E+00   0.00000000000000E+00   0.00000000000000E+00  -3.60136084821234E-17
     -7.18479424563678E-21  -3.60207932763690E-17   6.70577139034718E-16   9.50531349407078E-03   9.50531349407078E-03
      0.00000000000000E+00   0.00000000000000E+00   3.78758435335797E-17   6.62629129527453E-21   3.78824698248750E-17
      8.60759753668903E-16  -5.00000000000000E-01  -5.00000000000000E-01   0.00000000000000E+00   0.00000000000000E+00
      0.00000000000000E+00   0.00000000000000E+00   0.00000000000000E+00  -3.66202776317288E-16
      1.22663053462973E-02
      0.00000000000000E+00   0.00000000000000E+00   0.00000000000000E+00   0.00000000000000E+00  -4.88203120627894E-17
     -9.34119161712012E-21  -4.88296532544066E-17   6.70038941301794E-16   1.22663053462973E-02   1.22663053462973E-02
      0.00000000000000E+00   0.00000000000000E+00   4.76325476557311E-17   8.43492604854998E-21   4.76409825817796E-17
      8.61883774681180E-16  -5.00000000000000E-01  -5.00000000000000E-01   0.00000000000000E+00   0.00000000000000E+00
      0.00000000000000E+00   0.00000000000000E+00   0.00000000000000E+00  -3.67569374229154E-16
      1.55426823442728E-02
      0.00000000000000E+00   0.00000000000000E+00   0.00000000000000E+00   0.00000000000000E+00  -6.29226614812662E-17
     -1.19276896043370E-20  -6.29345891708705E-17   6.69424119924296E-16   1.55426823442728E-02   1.55426823442728E-02
      0.00000000000000E+00   0.00000000000000E+00   6.49359774088828E-17   1.05055586532476E-20   6.49464829675360E-17
      8.63241960683572E-16  -5.00000000000000E-01  -5.00000000000000E-01   0.00000000000000E+00   0.00000000000000E+00
      0.00000000000000E+00   0.00000000000000E+00   0.00000000000000E+00  -3.69148085650440E-16
      1.94306497152037E-02
      0.00000000000000E+00   0.00000000000000E+00   0.00000000000000E+00   0.00000000000000E+00  -7.69625736823377E-17
     -1.50236250950744E-20  -7.69775973074327E-17   6.68727854785497E-16   1.94306497152037E-02   1.94306497152037E-02
      0.00000000000000E+00   0.00000000000000E+00   7.67581852011090E-17   1.28508471854366E-20   7.67710360482945E-17
      8.64887322072105E-16  -5.00000000000000E-01  -5.00000000000000E-01   0.00000000000000E+00   0.00000000000000E+00
      0.00000000000000E+00   0.00000000000000E+00   0.00000000000000E+00  -3.70961473612010E-16
      2.40443709953751E-02
      0.00000000000000E+00   0.00000000000000E+00   0.00000000000000E+00   0.00000000000000E+00  -9.49882650622913E-17
     -1.87143871229086E-20  -9.50069794494143E-17   6.67947937725245E-16   2.40443709953751E-02   2.40443709953751E-02
      0.00000000000000E+00   0.00000000000000E+00   9.14353313675305E-17   1.54695381001554E-20   9.14508009056307E-17
      8.66885932950943E-16  -5.00000000000000E-01  -5.00000000000000E-01   0.00000000000000E+00   0.00000000000000E+00
      0.00000000000000E+00   0.00000000000000E+00   0.00000000000000E+00  -3.73030043595852E-16
      2.95193202478451E-02
      0.00000000000000E+00   0.00000000000000E+00   0.00000000000000E+00   0.00000000000000E+00  -1.16102273867640E-16
     -2.30839785243293E-20  -1.16125357846165E-16   6.67086282543646E-16   2.95193202478451E-02   2.95193202478451E-02
      0.00000000000000E+00   0.00000000000000E+00   1.17238013990506E-16   1.83383081247582E-20   1.17256352298630E-16
      8.69320070559678E-16  -5.00000000000000E-01  -5.00000000000000E-01   0.00000000000000E+00   0.00000000000000E+00
      0.00000000000000E+00   0.00000000000000E+00   0.00000000000000E+00  -3.75370055679209E-16
      3.60162600274429E-02
      0.00000000000000E+00   0.00000000000000E+00   0.00000000000000E+00   0.00000000000000E+00  -1.37406414521243E-16
     -2.82009430349591E-20  -1.37434615464278E-16   6.66150729560066E-16   3.60162600274429E-02   3.60162600274429E-02
      0.00000000000000E+00   0.00000000000000E+00   1.38648895457222E-16   2.14022412706978E-20   1.38670297698493E-16
      8.72291706052385E-16  -5.00000000000000E-01  -5.00000000000000E-01   0.00000000000000E+00   0.00000000000000E+00
      0.00000000000000E+00   0.00000000000000E+00   0.00000000000000E+00  -3.77990922404206E-16
      4.37259618992322E-02
      0.00000000000000E+00   0.00000000000000E+00   0.00000000000000E+00   0.00000000000000E+00  -1.59351098909085E-16
     -3.40954711348122E-20  -1.59385194380220E-16   6.65156894924268E-16   4.37259618992322E-02   4.37259618992322E-02
      0.00000000000000E+00   0.00000000000000E+00   1.64267030425171E-16   2.45662176461932E-20   1.64291596642818E-16
      8.75925943645029E-16  -5.00000000000000E-01  -5.00000000000000E-01   0.00000000000000E+00   0.00000000000000E+00
      0.00000000000000E+00   0.00000000000000E+00   0.00000000000000E+00  -3.80892665339526E-16
      5.28748081204222E-02
      0.00000000000000E+00   0.00000000000000E+00   0.00000000000000E+00   0.00000000000000E+00  -1.90211660321140E-16
     -4.07280829964498E-20  -1.90252388404137E-16   6.64129464765742E-16   5.28748081204222E-02   5.28748081204222E-02
      0.00000000000000E+00   0.00000000000000E+00   1.86142608656617E-16   2.76918946695894E-20   1.86170300551287E-16
      8.80373540349188E-16  -5.00000000000000E-01  -5.00000000000000E-01   0.00000000000000E+00   0.00000000000000E+00
      0.00000000000000E+00   0.00000000000000E+00   0.00000000000000E+00  -3.84064530368263E-16
      6.37314389695677E-02
      0.00000000000000E+00   0.00000000000000E+00   0.00000000000000E+00   0.00000000000000E+00  -2.20172113585110E-16
     -4.79567064773799E-20  -2.20220070291587E-16   6.63101951721143E-16   6.37314389695677E-02   6.37314389695677E-02
      0.00000000000000E+00   0.00000000000000E+00   2.14496925009228E-16   3.06073048748391E-20   2.14527532314103E-16
      8.85811101986394E-16  -5.00000000000000E-01  -5.00000000000000E-01   0.00000000000000E+00   0.00000000000000E+00
      0.00000000000000E+00   0.00000000000000E+00   0.00000000000000E+00  -3.87486541100773E-16
      7.64698858325651E-02
      0.00000000000000E+00   0.00000000000000E+00   0.00000000000000E+00   0.00000000000000E+00  -2.46275937905289E-16
     -5.54413647716941E-20  -2.46331379270060E-16   6.62123511946197E-16   7.64698858325651E-02   7.64698858325651E-02
      0.00000000000000E+00   0.00000000000000E+00   2.47138951285239E-16   3.31116450952758E-20   2.47172062930334E-16
      8.92361791904809E-16  -5.00000000000000E-01  -5.00000000000000E-01   0.00000000000000E+00   0.00000000000000E+00
      0.00000000000000E+00   0.00000000000000E+00   0.00000000000000E+00  -3.91097457598409E-16
      9.14163301518153E-02
      0.00000000000000E+00   0.00000000000000E+00   0.00000000000000E+00   0.00000000000000E+00  -2.73892708874083E-16
     -6.28457882092245E-20  -2.73955554662292E-16   6.61228256425207E-16   9.14163301518153E-02   9.14163301518153E-02
      0.00000000000000E+00   0.00000000000000E+00   2.75400605061947E-16   3.50884104231631E-20   2.75435693472371E-16
      9.00204888061600E-16  -5.00000000000000E-01  -5.00000000000000E-01   0.00000000000000E+00   0.00000000000000E+00
      0.00000000000000E+00   0.00000000000000E+00   0.00000000000000E+00  -3.94885736150973E-16
      1.08953491486402E-01
      0.00000000000000E+00   0.00000000000000E+00   0.00000000000000E+00   0.00000000000000E+00  -2.95612119611813E-16
     -6.98364819908768E-20  -2.95681956093804E-16   6.60440181177734E-16   1.08953491486402E-01   1.08953491486402E-01
      0.00000000000000E+00   0.00000000000000E+00   3.00714975672350E-16   3.65029507967260E-20   3.00751478623147E-16
      9.09513058065645E-16  -5.00000000000000E-01  -5.00000000000000E-01   0.00000000000000E+00   0.00000000000000E+00
      0.00000000000000E+00   0.00000000000000E+00   0.00000000000000E+00  -3.98866794564589E-16
      1.29530427452318E-01
      0.00000000000000E+00   0.00000000000000E+00   0.00000000000000E+00   0.00000000000000E+00  -3.18095887681064E-16
     -7.61772993099598E-20  -3.18172064980374E-16   6.59767445907870E-16   1.29530427452318E-01   1.29530427452318E-01
      0.00000000000000E+00   0.00000000000000E+00   3.20462509508331E-16   3.74131232612061E-20   3.20499922631592E-16
      9.20438930192033E-16  -5.00000000000000E-01  -5.00000000000000E-01   0.00000000000000E+00   0.00000000000000E+00
      0.00000000000000E+00   0.00000000000000E+00   0.00000000000000E+00  -4.03094653730047E-16
      1.53674032318992E-01
      0.00000000000000E+00   0.00000000000000E+00   0.00000000000000E+00   0.00000000000000E+00  -3.39310284016138E-16
     -8.17807682164839E-20  -3.39392064784355E-16   6.59202684177248E-16   1.53674032318992E-01   1.53674032318992E-01
      0.00000000000000E+00   0.00000000000000E+00   3.39278693065643E-16   3.79429103341947E-20   3.39316635975977E-16
      9.33107450535851E-16  -5.00000000000000E-01  -5.00000000000000E-01   0.00000000000000E+00   0.00000000000000E+00
      0.00000000000000E+00   0.00000000000000E+00   0.00000000000000E+00  -4.07663102152137E-16
      1.82002528695889E-01
      0.00000000000000E+00   0.00000000000000E+00   0.00000000000000E+00   0.00000000000000E+00  -3.55888691480822E-16
     -8.66794265197670E-20  -3.55975370907342E-16   6.58729731742020E-16   1.82002528695889E-01   1.82002528695889E-01
      0.00000000000000E+00   0.00000000000000E+00   3.57726719820914E-16   3.82332978157855E-20   3.57764953118730E-16
      9.47623615078425E-16  -5.00000000000000E-01  -5.00000000000000E-01   0.00000000000000E+00   0.00000000000000E+00
      0.00000000000000E+00   0.00000000000000E+00   0.00000000000000E+00  -4.12695852101780E-16
      2.15241297778115E-01
      0.00000000000000E+00   0.00000000000000E+00   0.00000000000000E+00   0.00000000000000E+00  -3.68032811106369E-16
     -9.09817631216340E-20  -3.68123792869490E-16   6.58329094782679E-16   2.15241297778115E-01   2.15241297778115E-01
      0.00000000000000E+00   0.00000000000000E+00   3.71022734285245E-16   3.83999558446384E-20   3.71061134241090E-16
      9.64108886713533E-16  -5.00000000000000E-01  -5.00000000000000E-01   0.00000000000000E+00   0.00000000000000E+00
      0.00000000000000E+00   0.00000000000000E+00   0.00000000000000E+00  -4.18339340096529E-16
      2.54241453501261E-01
      0.00000000000000E+00   0.00000000000000E+00   0.00000000000000E+00   0.00000000000000E+00  -3.81567122131010E-16
     -9.49117472939282E-20  -3.81662033878304E-16   6.57974374453141E-16   2.54241453501261E-01   2.54241453501261E-01
      0.00000000000000E+00   0.00000000000000E+00   3.86227446631315E-16   3.85166378924118E-20   3.86265963269208E-16
      9.82772541995507E-16  -5.00000000000000E-01  -5.00000000000000E-01   0.00000000000000E+00   0.00000000000000E+00
      0.00000000000000E+00   0.00000000000000E+00   0.00000000000000E+00  -4.24771765665997E-16
      3.00001636216419E-01
      0.00000000000000E+00   0.00000000000000E+00   0.00000000000000E+00   0.00000000000000E+00  -3.99031465259438E-16
     -9.88455253468960E-20  -3.99130310784785E-16   6.57629421005372E-16   3.00001636216419E-01   3.00001636216419E-01
      0.00000000000000E+00   0.00000000000000E+00   3.94070092590203E-16   3.86212953353094E-20   3.94108713885538E-16
      1.00398275596173E-15  -5.00000000000000E-01  -5.00000000000000E-01   0.00000000000000E+00   0.00000000000000E+00
      0.00000000000000E+00   0.00000000000000E+00   0.00000000000000E+00  -4.32211079731015E-16
      3.53083448166001E-01
      0.00000000000000E+00   0.00000000000000E+00   0.00000000000000E+00   0.00000000000000E+00  -4.09455288426438E-16
     -1.03133084050573E-19  -4.09558421510488E-16   6.57264307192407E-16   3.53083448166001E-01   3.53083448166001E-01
      0.00000000000000E+00   0.00000000000000E+00   4.12790245575209E-16   3.87293267743725E-20   4.12828974901984E-16
      1.02800095460149E-15  -5.00000000000000E-01  -5.00000000000000E-01   0.00000000000000E+00   0.00000000000000E+00
      0.00000000000000E+00   0.00000000000000E+00   0.00000000000000E+00  -4.40799177301675E-16
      4.14658350027517E-01
      0.00000000000000E+00   0.00000000000000E+00   0.00000000000000E+00   0.00000000000000E+00  -4.27548486997166E-16
     -1.07612813524946E-19  -4.27656099810691E-16   6.56894213309480E-16   4.14658350027517E-01   4.14658350027517E-01
      0.00000000000000E+00   0.00000000000000E+00   4.19655062923780E-16   3.88474816188551E-20   4.19693910405399E-16
      1.05542267951289E-15  -5.00000000000000E-01  -5.00000000000000E-01   0.00000000000000E+00   0.00000000000000E+00
      0.00000000000000E+00   0.00000000000000E+00   0.00000000000000E+00  -4.50691064919460E-16
      4.86085236186876E-01
      0.00000000000000E+00   0.00000000000000E+00   0.00000000000000E+00   0.00000000000000E+00  -4.33130280443037E-16
     -1.10997509020238E-19  -4.33241277952057E-16   6.56621805289461E-16   4.86085236186876E-01   4.86085236186876E-01
      0.00000000000000E+00   0.00000000000000E+00   4.30010962628903E-16   3.89789926969386E-20   4.30049941621600E-16
      1.08694110358030E-15  -5.00000000000000E-01  -5.00000000000000E-01   0.00000000000000E+00   0.00000000000000E+00
      0.00000000000000E+00   0.00000000000000E+00   0.00000000000000E+00  -4.61919762353228E-16
      5.68940424131732E-01
      0.00000000000000E+00   0.00000000000000E+00   0.00000000000000E+00   0.00000000000000E+00  -4.44562422399414E-16
     -1.13194910895790E-19  -4.44675617310310E-16   6.56448022897628E-16   5.68940424131732E-01   5.68940424131732E-01
      0.00000000000000E+00   0.00000000000000E+00   4.45824514876947E-16   3.91254439693977E-20   4.45863640320917E-16
      1.12322963695548E-15  -5.00000000000000E-01  -5.00000000000000E-01   0.00000000000000E+00   0.00000000000000E+00
      0.00000000000000E+00   0.00000000000000E+00   0.00000000000000E+00  -4.74729884684030E-16
      6.65052442147765E-01
      0.00000000000000E+00   0.00000000000000E+00   0.00000000000000E+00   0.00000000000000E+00  -4.50865732933838E-16
     -1.17548694530683E-19  -4.50983281628368E-16   6.56111081009659E-16   6.65052442147765E-01   6.65052442147765E-01
      0.00000000000000E+00   0.00000000000000E+00   4.59909545243066E-16   3.92865862635387E-20   4.59948831829329E-16
      1.16487170601361E-15  -5.00000000000000E-01  -5.00000000000000E-01   0.00000000000000E+00   0.00000000000000E+00
      0.00000000000000E+00   0.00000000000000E+00   0.00000000000000E+00  -4.89856191229305E-16
      7.76542383046363E-01
      0.00000000000000E+00   0.00000000000000E+00   0.00000000000000E+00   0.00000000000000E+00  -5.17823724086242E-16
     -1.39236440458545E-19  -5.17962960526700E-16   6.54560648847319E-16   7.76542383046363E-01   7.76542383046363E-01
      0.00000000000000E+00   0.00000000000000E+00   5.21894904007410E-16   3.94589387781957E-20   5.21934362946188E-16
      1.21206745640648E-15  -5.00000000000000E-01  -5.00000000000000E-01   0.00000000000000E+00   0.00000000000000E+00
      0.00000000000000E+00   0.00000000000000E+00   0.00000000000000E+00  -5.09407954902264E-16
      9.05870714488737E-01
      0.00000000000000E+00   0.00000000000000E+00   0.00000000000000E+00   0.00000000000000E+00  -6.34124756262633E-16
     -1.82209159197979E-19  -6.34306965421831E-16   6.51972782321205E-16   9.05870714488737E-01   9.05870714488737E-01
      0.00000000000000E+00   0.00000000000000E+00   6.26322992244845E-16   3.96437233068838E-20   6.26362635968152E-16
      1.26587744658915E-15  -5.00000000000000E-01  -5.00000000000000E-01   0.00000000000000E+00   0.00000000000000E+00
      0.00000000000000E+00   0.00000000000000E+00   0.00000000000000E+00  -5.33435444709923E-16
      1.00000000000000E+00
      0.00000000000000E+00   0.00000000000000E+00   0.00000000000000E+00   0.00000000000000E+00  -6.67068268944560E-16
     -1.95719964539122E-19  -6.67263988909099E-16   6.51260545439942E-16   1.00000000000000E+00   1.00000000000000E+00
      0.00000000000000E+00   0.00000000000000E+00   6.61645074431179E-16   3.97738738672309E-20   6.61684848305046E-16
      1.30542426401834E-15  -5.00000000000000E-01  -5.00000000000000E-01   0.00000000000000E+00   0.00000000000000E+00
      0.00000000000000E+00   0.00000000000000E+00   0.00000000000000E+00  -5.48970579967503E-16
      0.00000000000000E+00
      0.00000000000000E+00   0.00000000000000E+00   0.00000000000000E+00   0.00000000000000E+00  -6.64057788808644E-16
     -1.95719962065076E-19  -6.64253508770709E-16   6.51260545566529E-16   1.00000000000000E+00   1.00000000000000E+00
      0.00000000000000E+00   0.00000000000000E+00   6.62401287724709E-16   3.97738738676064E-20   6.62441061598577E-16
      1.30542426409285E-15  -5.00000000000000E-01  -5.00000000000000E-01   0.00000000000000E+00   0.00000000000000E+00
      0.00000000000000E+00   0.00000000000000E+00   0.00000000000000E+00  -5.48970579756322E-16
      1.00000000000000E-03
      0.00000000000000E+00   0.00000000000000E+00   0.00000000000000E+00   0.00000000000000E+00  -6.70504228838952E-16
     -1.95653510705469E-19  -6.70699882349658E-16   6.51192198342763E-16   1.00000000000000E+00   1.00000000000000E+00
      0.00000000000000E+00   0.00000000000000E+00   6.62778555401173E-16   3.97738736503377E-20   6.62818329274823E-16
      1.30512116298449E-15  -4.98000000000000E-01  -4.98000000000000E-01   0.00000000000000E+00   0.00000000000000E+00
      0.00000000000000E+00   0.00000000000000E+00   0.00000000000000E+00  -5.47054802350887E-16
      2.17333333333333E-03
      0.00000000000000E+00   0.00000000000000E+00   0.00000000000000E+00   0.00000000000000E+00  -6.67905027238953E-16
     -1.95574684956395E-19  -6.68100601923910E-16   6.51111808914308E-16   1.00000000000000E+00   1.00000000000000E+00
      0.00000000000000E+00   0.00000000000000E+00   6.66558684145876E-16   3.97738734978976E-20   6.66598458019374E-16
      1.30476525771925E-15  -4.95653333333333E-01  -4.95653333333333E-01   0.00000000000000E+00   0.00000000000000E+00
      0.00000000000000E+00   0.00000000000000E+00   0.00000000000000E+00  -5.44810079571261E-16
      3.56568888888889E-03
      0.00000000000000E+00   0.00000000000000E+00   0.00000000000000E+00   0.00000000000000E+00  -6.65287595255647E-16
     -1.95479943578063E-19  -6.65483075199225E-16   6.51016142423765E-16   1.00000000000000E+00   1.00000000000000E+00
      0.00000000000000E+00   0.00000000000000E+00   6.68069975930490E-16   3.97738734603872E-20   6.68109749803951E-16
      1.30434253754240E-15  -4.92868622222222E-01  -4.92868622222222E-01   0.00000000000000E+00   0.00000000000000E+00
      0.00000000000000E+00   0.00000000000000E+00   0.00000000000000E+00  -5.42150774040916E-16
      5.21795081481481E-03
      0.00000000000000E+00   0.00000000000000E+00   0.00000000000000E+00   0.00000000000000E+00  -6.67665317092280E-16
     -1.95365812972849E-19  -6.67860682905252E-16   6.50902241191245E-16   1.00000000000000E+00   1.00000000000000E+00
      0.00000000000000E+00   0.00000000000000E+00   6.70337285133817E-16   3.97738736187937E-20   6.70377059007436E-16
      1.30384036618428E-15  -4.89564098370370E-01  -4.89564098370370E-01   0.00000000000000E+00   0.00000000000000E+00
      0.00000000000000E+00   0.00000000000000E+00   0.00000000000000E+00  -5.39001402839015E-16
      7.17863496691358E-03
      0.00000000000000E+00   0.00000000000000E+00   0.00000000000000E+00   0.00000000000000E+00  -6.64496746090874E-16
     -1.95227958977797E-19  -6.64691974049851E-16   6.50766554913810E-16   1.00000000000000E+00   1.00000000000000E+00
      0.00000000000000E+00   0.00000000000000E+00   6.67688802287107E-16   3.97738740940039E-20   6.67728576161201E-16
      1.30324367521627E-15  -4.85642730066173E-01  -4.85642730066173E-01   0.00000000000000E+00   0.00000000000000E+00
      0.00000000000000E+00   0.00000000000000E+00   0.00000000000000E+00  -5.35273238925728E-16
      9.50531349407078E-03
      0.00000000000000E+00   0.00000000000000E+00   0.00000000000000E+00   0.00000000000000E+00  -6.68820665601195E-16
     -1.95060934859446E-19  -6.69015726536055E-16   6.50604814972930E-16   1.00000000000000E+00   1.00000000000000E+00
      0.00000000000000E+00   0.00000000000000E+00   6.65039937906118E-16   3.97738750647059E-20   6.65079711781183E-16
      1.30253447579954E-15  -4.80989373011858E-01  -4.80989373011858E-01   0.00000000000000E+00   0.00000000000000E+00
      0.00000000000000E+00   0.00000000000000E+00   0.00000000000000E+00  -5.30862232720305E-16
      1.22663053462973E-02
      0.00000000000000E+00   0.00000000000000E+00   0.00000000000000E+00   0.00000000000000E+00  -6.68587786421682E-16
     -1.94857841447232E-19  -6.68782644263129E-16   6.50411879738900E-16   1.00000000000000E+00   1.00000000000000E+00
      0.00000000000000E+00   0.00000000000000E+00   6.63146833696147E-16   3.97738767931888E-20   6.63186607572940E-16
      1.30169126253408E-15  -4.75467389307405E-01  -4.75467389307405E-01   0.00000000000000E+00   0.00000000000000E+00
      0.00000000000000E+00   0.00000000000000E+00   0.00000000000000E+00  -5.25646741316242E-16
      1.55426823442728E-02
      0.00000000000000E+00   0.00000000000000E+00   0.00000000000000E+00   0.00000000000000E+00  -6.66798209283222E-16
     -1.94609875218958E-19  -6.66992819158441E-16   6.50181542605161E-16   1.00000000000000E+00   1.00000000000000E+00
      0.00000000000000E+00   0.00000000000000E+00   6.66546992352495E-16   3.97738796608831E-20   6.66586766232156E-16
      1.30068828047740E-15  -4.68914635311454E-01  -4.68914635311454E-01   0.00000000000000E+00   0.00000000000000E+00
      0.00000000000000E+00   0.00000000000000E+00   0.00000000000000E+00  -5.19485135210735E-16
      1.94306497152037E-02
      0.00000000000000E+00   0.00000000000000E+00   0.00000000000000E+00   0.00000000000000E+00  -6.68958068475256E-16
     -1.94305703995416E-19  -6.69152374179252E-16   6.49906292679740E-16   1.00000000000000E+00   1.00000000000000E+00
      0.00000000000000E+00   0.00000000000000E+00   6.65408956402131E-16   3.97738842202742E-20   6.65448730286351E-16
      1.29949461766239E-15  -4.61138700569592E-01  -4.61138700569592E-01   0.00000000000000E+00   0.00000000000000E+00
      0.00000000000000E+00   0.00000000000000E+00   0.00000000000000E+00  -5.12213423502054E-16
      2.40443709953751E-02
      0.00000000000000E+00   0.00000000000000E+00   0.00000000000000E+00   0.00000000000000E+00  -6.64012616148162E-16
     -1.93930590903555E-19  -6.64206546739065E-16   6.49577013065714E-16   1.00000000000000E+00   1.00000000000000E+00
      0.00000000000000E+00   0.00000000000000E+00   6.65404501905673E-16   3.97738912718056E-20   6.65444275796945E-16
      1.29807307314358E-15  -4.51911258009250E-01  -4.51911258009250E-01   0.00000000000000E+00   0.00000000000000E+00
      0.00000000000000E+00   0.00000000000000E+00   0.00000000000000E+00  -5.03643159529131E-16
      2.95193202478451E-02
      0.00000000000000E+00   0.00000000000000E+00   0.00000000000000E+00   0.00000000000000E+00  -6.66992623979237E-16
     -1.93465248124436E-19  -6.67186089227361E-16   6.49182588069587E-16   1.00000000000000E+00   1.00000000000000E+00
      0.00000000000000E+00   0.00000000000000E+00   6.71071231676774E-16   3.97739019640920E-20   6.71111005578738E-16
      1.29637873374105E-15  -4.40961359504310E-01  -4.40961359504310E-01   0.00000000000000E+00   0.00000000000000E+00
      0.00000000000000E+00   0.00000000000000E+00   0.00000000000000E+00  -4.93560090007942E-16
      3.60162600274429E-02
      0.00000000000000E+00   0.00000000000000E+00   0.00000000000000E+00   0.00000000000000E+00  -6.70344183531019E-16
     -1.92884232811881E-19  -6.70537067763830E-16   6.48709379770825E-16   1.00000000000000E+00   1.00000000000000E+00
      0.00000000000000E+00   0.00000000000000E+00   6.62745015647319E-16   3.97739179411098E-20   6.62784789565260E-16
      1.29435718560589E-15  -4.27967479945114E-01  -4.27967479945114E-01   0.00000000000000E+00   0.00000000000000E+00
      0.00000000000000E+00   0.00000000000000E+00   0.00000000000000E+00  -4.81724297446435E-16
      4.37259618992322E-02
      0.00000000000000E+00   0.00000000000000E+00   0.00000000000000E+00   0.00000000000000E+00  -6.70515872654987E-16
     -1.92153879970321E-19  -6.70708026534958E-16   6.48140486808502E-16   1.00000000000000E+00   1.00000000000000E+00
      0.00000000000000E+00   0.00000000000000E+00   6.63114584862164E-16   3.97739415339863E-20   6.63154358803698E-16
      1.29194228744416E-15  -4.12548076201536E-01  -4.12548076201536E-01   0.00000000000000E+00   0.00000000000000E+00
      0.00000000000000E+00   0.00000000000000E+00   0.00000000000000E+00  -4.67873043646494E-16
      5.28748081204222E-02
      0.00000000000000E+00   0.00000000000000E+00   0.00000000000000E+00   0.00000000000000E+00  -6.71440743274206E-16
     -1.91229657044156E-19  -6.71631972931250E-16   6.47454627115247E-16   1.00000000000000E+00   1.00000000000000E+00