DF-ISE text

Info {
  version   = 1.0
  type      = xyplot
  datasets  = [
    "time"
    "S OuterVoltage" "S InnerVoltage" "S QuasiFermiPotential" "S DisplacementCurrent" "S eCurrent"
    "S hCurrent" "S TotalCurrent" "S Charge" "D OuterVoltage" "D InnerVoltage"
    "D QuasiFermiPotential" "D DisplacementCurrent" "D eCurrent" "D hCurrent" "D TotalCurrent"
    "D Charge" "G OuterVoltage" "G InnerVoltage" "G QuasiFermiPotential" "G DisplacementCurrent"
    "G eCurrent" "G hCurrent" "G TotalCurrent" "G Charge" ]
  functions = [
    Time
    OuterVoltage InnerVoltage QuasiFermiPotential DisplacementCurrent eCurrent
    hCurrent TotalCurrent Charge OuterVoltage InnerVoltage
    QuasiFermiPotential DisplacementCurrent eCurrent hCurrent TotalCurrent
    Charge OuterVoltage InnerVoltage QuasiFermiPotential DisplacementCurrent
    eCurrent hCurrent TotalCurrent Charge ]
}

Data {
      0.00000000000000E+00
      0.00000000000000E+00   0.00000000000000E+00   0.00000000000000E+00   0.00000000000000E+00   1.66550050938348E-22
     -1.32159705074533E-34   1.66550050938216E-22   3.88859555289178E-16   0.00000000000000E+00   0.00000000000000E+00
      0.00000000000000E+00   0.00000000000000E+00  -8.25704320966149E-19  -1.44977015389976E-34  -8.25704320966149E-19
      5.52482437337543E-16  -5.00000000000000E-01  -5.00000000000000E-01   0.00000000000000E+00   0.00000000000000E+00
      0.00000000000000E+00   0.00000000000000E+00   0.00000000000000E+00  -3.78582633827947E-16
      0.00000000000000E+00
      0.00000000000000E+00   0.00000000000000E+00   0.00000000000000E+00   0.00000000000000E+00  -2.49471404533375E-18
     -3.58449160711036E-31  -2.49471404533411E-18   3.88859555274807E-16   0.00000000000000E+00   0.00000000000000E+00
      0.00000000000000E+00   0.00000000000000E+00   3.30377229385845E-18  -3.60465198711587E-31   3.30377229385809E-18
      5.52482437301540E-16  -5.00000000000000E-01  -5.00000000000000E-01   0.00000000000000E+00   0.00000000000000E+00
      0.00000000000000E+00   0.00000000000000E+00   0.00000000000000E+00  -3.78582633828674E-16
      1.00000000000000E-03
      0.00000000000000E+00   0.00000000000000E+00   0.00000000000000E+00   0.00000000000000E+00   6.64871313291419E-18
     -1.58134041345841E-22   6.64855499887284E-18   3.88830523732631E-16   1.00000000000000E-03   1.00000000000000E-03
      0.00000000000000E+00   0.00000000000000E+00  -4.11364071559658E-18   9.35819895439199E-22  -4.11270489570114E-18
      5.52810318659600E-16  -5.00000000000000E-01  -5.00000000000000E-01   0.00000000000000E+00   0.00000000000000E+00
      0.00000000000000E+00   0.00000000000000E+00   0.00000000000000E+00  -3.78848331422853E-16
      2.17333333333333E-03
      0.00000000000000E+00   0.00000000000000E+00   0.00000000000000E+00   0.00000000000000E+00  -6.66118400749362E-18
     -3.43617609817971E-22  -6.66152762510343E-18   3.88796644366250E-16   2.17333333333333E-03   2.17333333333333E-03
      0.00000000000000E+00   0.00000000000000E+00   4.15778891495626E-18   1.99650313757826E-21   4.15978541809383E-18
      5.53195046013195E-16  -5.00000000000000E-01  -5.00000000000000E-01   0.00000000000000E+00   0.00000000000000E+00
      0.00000000000000E+00   0.00000000000000E+00   0.00000000000000E+00  -3.79159350245175E-16
      3.56568888888889E-03
      0.00000000000000E+00   0.00000000000000E+00   0.00000000000000E+00   0.00000000000000E+00   1.65238218365892E-18
     -5.63698103261335E-22   1.65181848555565E-18   3.88756686046807E-16   3.56568888888889E-03   3.56568888888889E-03
      0.00000000000000E+00   0.00000000000000E+00   8.77519281395644E-19   3.20468520184530E-21   8.80723966597489E-19
      5.53651591491698E-16  -5.00000000000000E-01  -5.00000000000000E-01   0.00000000000000E+00   0.00000000000000E+00
      0.00000000000000E+00   0.00000000000000E+00   0.00000000000000E+00  -3.79527449590982E-16
      5.21795081481481E-03
      0.00000000000000E+00   0.00000000000000E+00   0.00000000000000E+00   0.00000000000000E+00   5.80123596263368E-18
     -8.24922293582479E-22   5.80041104034010E-18   3.88709592498148E-16   5.21795081481481E-03   5.21795081481481E-03
      0.00000000000000E+00   0.00000000000000E+00  -3.22528726438460E-18   4.57022188085085E-21  -3.22071704250375E-18
      5.54193335294259E-16  -5.00000000000000E-01  -5.00000000000000E-01   0.00000000000000E+00   0.00000000000000E+00
      0.00000000000000E+00   0.00000000000000E+00   0.00000000000000E+00  -3.79962970019886E-16
      7.17863496691358E-03
      0.00000000000000E+00   0.00000000000000E+00   0.00000000000000E+00   0.00000000000000E+00  -6.70802877081756E-18
     -1.13516741768960E-21  -6.70916393823525E-18   3.88654127993345E-16   7.17863496691358E-03   7.17863496691358E-03
      0.00000000000000E+00   0.00000000000000E+00   5.85182556638774E-18   6.09936810734436E-21   5.85792493449508E-18
      5.54836127115338E-16  -5.00000000000000E-01  -5.00000000000000E-01   0.00000000000000E+00   0.00000000000000E+00
      0.00000000000000E+00   0.00000000000000E+00   0.00000000000000E+00  -3.80478109512903E-16
      9.50531349407078E-03
      0.00000000000000E+00   0.00000000000000E+00   0.00000000000000E+00   0.00000000000000E+00  -4.20324556526194E-18
     -1.50398225437576E-21  -4.20474954751632E-18   3.88588842524749E-16   9.50531349407078E-03   9.50531349407078E-03
      0.00000000000000E+00   0.00000000000000E+00   9.56069499960684E-19   7.79290113573748E-21   9.63862401096421E-19
      5.55598725072963E-16  -5.00000000000000E-01  -5.00000000000000E-01   0.00000000000000E+00   0.00000000000000E+00
      0.00000000000000E+00   0.00000000000000E+00   0.00000000000000E+00  -3.81087273678508E-16
      1.22663053462973E-02
      0.00000000000000E+00   0.00000000000000E+00   0.00000000000000E+00   0.00000000000000E+00  -2.52599915542001E-18
     -1.94307832449471E-21  -2.52794223374450E-18   3.88512022555031E-16   1.22663053462973E-02   1.22663053462973E-02
      0.00000000000000E+00   0.00000000000000E+00   6.78336733239106E-18   9.64391467430518E-21   6.79301124706536E-18
      5.56503299043328E-16  -5.00000000000000E-01  -5.00000000000000E-01   0.00000000000000E+00   0.00000000000000E+00
      0.00000000000000E+00   0.00000000000000E+00   0.00000000000000E+00  -3.81807521278084E-16
      1.55426823442728E-02
      0.00000000000000E+00   0.00000000000000E+00   0.00000000000000E+00   0.00000000000000E+00  -6.70690101106952E-18
     -2.46704494405259E-21  -6.70936805601357E-18   3.88421621054444E-16   1.55426823442728E-02   1.55426823442728E-02
      0.00000000000000E+00   0.00000000000000E+00   1.07260020158740E-18   1.16354612394610E-20   1.08423566282687E-18
      5.57576002404883E-16  -5.00000000000000E-01  -5.00000000000000E-01   0.00000000000000E+00   0.00000000000000E+00
      0.00000000000000E+00   0.00000000000000E+00   0.00000000000000E+00  -3.82659136462436E-16
      1.94306497152037E-02
      0.00000000000000E+00   0.00000000000000E+00   0.00000000000000E+00   0.00000000000000E+00  -1.87960247731763E-18
     -3.09445709393331E-21  -1.88269693441157E-18   3.88315149489873E-16   1.94306497152037E-02   1.94306497152037E-02
      0.00000000000000E+00   0.00000000000000E+00   5.09550271236050E-18   1.37383599540074E-20   5.10924107231451E-18
      5.58847605067100E-16  -5.00000000000000E-01  -5.00000000000000E-01   0.00000000000000E+00   0.00000000000000E+00
      0.00000000000000E+00   0.00000000000000E+00   0.00000000000000E+00  -3.83666402935467E-16
      2.40443709953751E-02
      0.00000000000000E+00   0.00000000000000E+00   0.00000000000000E+00   0.00000000000000E+00  -3.59753172768116E-18
     -3.84964462989364E-21  -3.60138137231106E-18   3.88189507087391E-16   2.40443709953751E-02   2.40443709953751E-02
      0.00000000000000E+00   0.00000000000000E+00   7.58862132195480E-18   1.59097083804214E-20   7.60453103033522E-18
      5.60354172730831E-16  -5.00000000000000E-01  -5.00000000000000E-01   0.00000000000000E+00   0.00000000000000E+00
      0.00000000000000E+00   0.00000000000000E+00   0.00000000000000E+00  -3.84858684800087E-16
      2.95193202478451E-02
      0.00000000000000E+00   0.00000000000000E+00   0.00000000000000E+00   0.00000000000000E+00   1.59754825347560E-18
     -4.76563169420309E-21   1.59278262178140E-18   3.88040701898123E-16   2.95193202478451E-02   2.95193202478451E-02
      0.00000000000000E+00   0.00000000000000E+00  -2.85322042391714E-19   1.80928340773031E-20  -2.67229208314411E-19
      5.62137755387192E-16  -5.00000000000000E-01  -5.00000000000000E-01   0.00000000000000E+00   0.00000000000000E+00
      0.00000000000000E+00   0.00000000000000E+00   0.00000000000000E+00  -3.86272000308946E-16
      3.60162600274429E-02
      0.00000000000000E+00   0.00000000000000E+00   0.00000000000000E+00   0.00000000000000E+00   1.33568444051848E-18
     -5.88914770629467E-21   1.32979529281219E-18   3.87863392369519E-16   3.60162600274429E-02   3.60162600274429E-02
      0.00000000000000E+00   0.00000000000000E+00   5.54481848967179E-18   2.02195520836479E-20   5.56503804175544E-18
      5.64247021483998E-16  -5.00000000000000E-01  -5.00000000000000E-01   0.00000000000000E+00   0.00000000000000E+00
      0.00000000000000E+00   0.00000000000000E+00   0.00000000000000E+00  -3.87951375280994E-16
      4.37259618992322E-02
      0.00000000000000E+00   0.00000000000000E+00   0.00000000000000E+00   0.00000000000000E+00   3.79977749566174E-19
     -7.28943590316321E-21   3.72688313663011E-19   3.87650126781733E-16   4.37259618992322E-02   4.37259618992322E-02
      0.00000000000000E+00   0.00000000000000E+00   2.65829681655185E-18   2.22154591117975E-20   2.68051227566364E-18
      5.66737725536633E-16  -5.00000000000000E-01  -5.00000000000000E-01   0.00000000000000E+00   0.00000000000000E+00
      0.00000000000000E+00   0.00000000000000E+00   0.00000000000000E+00  -3.89954461197011E-16
      5.28748081204222E-02
      0.00000000000000E+00   0.00000000000000E+00   0.00000000000000E+00   0.00000000000000E+00  -1.78674265587081E-18
     -9.07411206027957E-21  -1.79581676793109E-18   3.87390091819508E-16   5.28748081204222E-02   5.28748081204222E-02
      0.00000000000000E+00   0.00000000000000E+00   3.79273727103563E-19   2.40084631072571E-20   4.03282190210820E-19
      5.69672845066863E-16  -5.00000000000000E-01  -5.00000000000000E-01   0.00000000000000E+00   0.00000000000000E+00
      0.00000000000000E+00   0.00000000000000E+00   0.00000000000000E+00  -3.92357156247493E-16
      6.36094543532852E-02
      0.00000000000000E+00   0.00000000000000E+00   0.00000000000000E+00   0.00000000000000E+00  -3.52564474447626E-18
     -1.13902277357350E-20  -3.53703497221199E-18   3.87070855914049E-16   6.36094543532852E-02   6.36094543532852E-02
      0.00000000000000E+00   0.00000000000000E+00  -8.67862862630118E-19   2.55253428556281E-20  -8.42337519774490E-19
      5.73083669179218E-16  -5.00000000000000E-01  -5.00000000000000E-01   0.00000000000000E+00   0.00000000000000E+00
      0.00000000000000E+00   0.00000000000000E+00   0.00000000000000E+00  -3.95229156728691E-16
      7.62047725998443E-02
      0.00000000000000E+00   0.00000000000000E+00   0.00000000000000E+00   0.00000000000000E+00  -6.07699313020150E-18
     -1.45076638011172E-20  -6.09150079400261E-18   3.86670317823114E-16   7.62047725998443E-02   7.62047725998443E-02
      0.00000000000000E+00   0.00000000000000E+00   3.75929233021272E-18   2.67425471075108E-20   3.78603487732023E-18
      5.77033976453264E-16  -5.00000000000000E-01  -5.00000000000000E-01   0.00000000000000E+00   0.00000000000000E+00
      0.00000000000000E+00   0.00000000000000E+00   0.00000000000000E+00  -3.98696680412007E-16
      9.09832793424738E-02
      0.00000000000000E+00   0.00000000000000E+00   0.00000000000000E+00   0.00000000000000E+00  -1.28571376403863E-17
     -1.88852680525078E-20  -1.28760229084388E-17   3.86156213121353E-16   9.09832793424738E-02   9.09832793424738E-02
      0.00000000000000E+00   0.00000000000000E+00   9.41034707310989E-18   2.76650595977488E-20   9.43801213270763E-18
      5.81590834163396E-16  -5.00000000000000E-01  -5.00000000000000E-01   0.00000000000000E+00   0.00000000000000E+00
      0.00000000000000E+00   0.00000000000000E+00   0.00000000000000E+00  -4.02931760519766E-16
      1.08323393920492E-01
      0.00000000000000E+00   0.00000000000000E+00   0.00000000000000E+00   0.00000000000000E+00  -6.34598950479859E-18
     -2.53089029399204E-20  -6.37129840773851E-18   3.85484423275629E-16   1.08323393920492E-01   1.08323393920492E-01
      0.00000000000000E+00   0.00000000000000E+00   7.04996750073058E-18   2.83249113593865E-20   7.07829241208997E-18
      5.86825746098750E-16  -5.00000000000000E-01  -5.00000000000000E-01   0.00000000000000E+00   0.00000000000000E+00
      0.00000000000000E+00   0.00000000000000E+00   0.00000000000000E+00  -4.08159618968512E-16
      1.28669128358701E-01
      0.00000000000000E+00   0.00000000000000E+00   0.00000000000000E+00   0.00000000000000E+00  -2.09940083745853E-17
     -3.51041007618295E-20  -2.10291124753472E-17   3.84602591320145E-16   1.28669128358701E-01   1.28669128358701E-01
      0.00000000000000E+00   0.00000000000000E+00   1.12908733746737E-17   2.87732097200309E-20   1.13196465843937E-17
      5.92821517295139E-16  -5.00000000000000E-01  -5.00000000000000E-01   0.00000000000000E+00   0.00000000000000E+00
      0.00000000000000E+00   0.00000000000000E+00   0.00000000000000E+00  -4.14645669783545E-16
      1.52541456766199E-01
      0.00000000000000E+00   0.00000000000000E+00   0.00000000000000E+00   0.00000000000000E+00  -4.92101845387985E-17
     -5.04102204242468E-20  -4.92605947592228E-17   3.83464557299771E-16   1.52541456766199E-01   1.52541456766199E-01
      0.00000000000000E+00   0.00000000000000E+00   1.73113791061785E-17   2.90682929978176E-20   1.73404473991763E-17
      5.99688637770431E-16  -5.00000000000000E-01  -5.00000000000000E-01   0.00000000000000E+00   0.00000000000000E+00
      0.00000000000000E+00   0.00000000000000E+00   0.00000000000000E+00  -4.22641131032041E-16
      1.80551655430996E-01
      0.00000000000000E+00   0.00000000000000E+00   0.00000000000000E+00   0.00000000000000E+00  -1.74586712293982E-17
     -7.44139579577102E-20  -1.75330851873559E-17   3.82055556114702E-16   1.80551655430996E-01   1.80551655430996E-01
      0.00000000000000E+00   0.00000000000000E+00   2.54292613897883E-17   2.92641361132007E-20   2.54585255259015E-17
      6.07588658050792E-16  -5.00000000000000E-01  -5.00000000000000E-01   0.00000000000000E+00   0.00000000000000E+00
      0.00000000000000E+00   0.00000000000000E+00   0.00000000000000E+00  -4.32287911770125E-16
      2.13043485882161E-01
      0.00000000000000E+00   0.00000000000000E+00   0.00000000000000E+00   0.00000000000000E+00  -2.93629241808036E-17
     -1.10879300591754E-19  -2.94738034813953E-17   3.80429953294751E-16   2.13043485882161E-01   2.13043485882161E-01
      0.00000000000000E+00   0.00000000000000E+00   2.52207823529456E-17   2.94020591349721E-20   2.52501844120805E-17
      6.16645487168522E-16  -5.00000000000000E-01  -5.00000000000000E-01   0.00000000000000E+00   0.00000000000000E+00
      0.00000000000000E+00   0.00000000000000E+00   0.00000000000000E+00  -4.43420346554076E-16
      2.51167233611528E-01
      0.00000000000000E+00   0.00000000000000E+00   0.00000000000000E+00   0.00000000000000E+00  -5.25334319216923E-17
     -1.65355647829300E-19  -5.26987875695216E-17   3.78635019501929E-16   2.51167233611528E-01   2.51167233611528E-01
      0.00000000000000E+00   0.00000000000000E+00   3.10642828823027E-17   2.95140750923573E-20   3.10937969573951E-17
      6.27222023323438E-16  -5.00000000000000E-01  -5.00000000000000E-01   0.00000000000000E+00   0.00000000000000E+00
      0.00000000000000E+00   0.00000000000000E+00   0.00000000000000E+00  -4.56020168471041E-16
      2.95390780977594E-01
      0.00000000000000E+00   0.00000000000000E+00   0.00000000000000E+00   0.00000000000000E+00  -5.56271518678227E-17
     -2.45719606843817E-19  -5.58728714746665E-17   3.76713826939334E-16   2.95390780977594E-01   2.95390780977594E-01
      0.00000000000000E+00   0.00000000000000E+00   3.87169557826314E-17   2.96181549569229E-20   3.87465739375884E-17
      6.39452877772360E-16  -5.00000000000000E-01  -5.00000000000000E-01   0.00000000000000E+00   0.00000000000000E+00
      0.00000000000000E+00   0.00000000000000E+00   0.00000000000000E+00  -4.69979744766666E-16
      3.46100448624016E-01
      0.00000000000000E+00   0.00000000000000E+00   0.00000000000000E+00   0.00000000000000E+00  -6.62369303602913E-17
     -3.66765543521778E-19  -6.66036959038131E-17   3.74650201745915E-16   3.46100448624016E-01   3.46100448624016E-01
      0.00000000000000E+00   0.00000000000000E+00   4.64252896369517E-17   2.97243083618486E-20   4.64550139453135E-17
      6.53407371268239E-16  -5.00000000000000E-01  -5.00000000000000E-01   0.00000000000000E+00   0.00000000000000E+00
      0.00000000000000E+00   0.00000000000000E+00   0.00000000000000E+00  -4.85402129097476E-16
      4.04247534191914E-01
      0.00000000000000E+00   0.00000000000000E+00   0.00000000000000E+00   0.00000000000000E+00  -1.07209900763224E-16
     -5.46185658679811E-19  -1.07756086421904E-16   3.72486453579313E-16   4.04247534191914E-01   4.04247534191914E-01
      0.00000000000000E+00   0.00000000000000E+00   7.55665141462445E-17   2.98393481025017E-20   7.55963534943470E-17
      6.69364770423636E-16  -5.00000000000000E-01  -5.00000000000000E-01   0.00000000000000E+00   0.00000000000000E+00
      0.00000000000000E+00   0.00000000000000E+00   0.00000000000000E+00  -5.02245963348667E-16
      4.70922858976436E-01
      0.00000000000000E+00   0.00000000000000E+00   0.00000000000000E+00   0.00000000000000E+00  -1.08373450219190E-16
     -7.77683664017235E-19  -1.09151133883207E-16   3.70440434541355E-16   4.70922858976436E-01   4.70922858976436E-01
      0.00000000000000E+00   0.00000000000000E+00   9.08985388556271E-17   2.99693670959267E-20   9.09285082227231E-17
      6.87740735701154E-16  -5.00000000000000E-01  -5.00000000000000E-01   0.00000000000000E+00   0.00000000000000E+00
      0.00000000000000E+00   0.00000000000000E+00   0.00000000000000E+00  -5.19814610951584E-16
      5.46488227065561E-01
      0.00000000000000E+00   0.00000000000000E+00   0.00000000000000E+00   0.00000000000000E+00  -1.43976170634011E-16
     -1.02929592799310E-18  -1.45005466562004E-16   3.68661409009983E-16   5.46488227065561E-01   5.46488227065561E-01
      0.00000000000000E+00   0.00000000000000E+00   1.15794031976650E-16   3.01143134119236E-20   1.15824146290062E-16
      7.08666377423721E-16  -5.00000000000000E-01  -5.00000000000000E-01   0.00000000000000E+00   0.00000000000000E+00
      0.00000000000000E+00   0.00000000000000E+00   0.00000000000000E+00  -5.37552427520035E-16
      6.32128977566570E-01
      0.00000000000000E+00   0.00000000000000E+00   0.00000000000000E+00   0.00000000000000E+00  -1.56043856688129E-16
     -1.35921647218191E-18  -1.57403073160311E-16   3.66779622826439E-16   6.32128977566570E-01   6.32128977566570E-01
      0.00000000000000E+00   0.00000000000000E+00   1.43945363153345E-16   3.02706361815794E-20   1.43975633789526E-16
      7.32203174739061E-16  -5.00000000000000E-01  -5.00000000000000E-01   0.00000000000000E+00   0.00000000000000E+00
      0.00000000000000E+00   0.00000000000000E+00   0.00000000000000E+00  -5.56979588744019E-16
      7.30330371474393E-01
      0.00000000000000E+00   0.00000000000000E+00   0.00000000000000E+00   0.00000000000000E+00  -2.14653872439669E-16
     -1.81667050595042E-18  -2.16470542945620E-16   3.64685372021797E-16   7.30330371474393E-01   7.30330371474393E-01
      0.00000000000000E+00   0.00000000000000E+00   2.10116541282010E-16   3.04408177884453E-20   2.10146982099798E-16
      7.58945574774502E-16  -5.00000000000000E-01  -5.00000000000000E-01   0.00000000000000E+00   0.00000000000000E+00
      0.00000000000000E+00   0.00000000000000E+00   0.00000000000000E+00  -5.78789218587490E-16
      8.44243988407468E-01
      0.00000000000000E+00   0.00000000000000E+00   0.00000000000000E+00   0.00000000000000E+00  -3.95348307268629E-16
     -2.21907564001213E-18  -3.97567382908641E-16   3.62838796592392E-16   8.44243988407468E-01   8.44243988407468E-01
      0.00000000000000E+00   0.00000000000000E+00   3.09656754599755E-16   3.06316643025606E-20   3.09687386264058E-16
      7.89950611137227E-16  -5.00000000000000E-01  -5.00000000000000E-01   0.00000000000000E+00   0.00000000000000E+00
      0.00000000000000E+00   0.00000000000000E+00   0.00000000000000E+00  -6.01558098245875E-16
      9.73346087598287E-01
      0.00000000000000E+00   0.00000000000000E+00   0.00000000000000E+00   0.00000000000000E+00  -6.13257330889575E-16
     -2.63910600147382E-18  -6.15896436891049E-16   3.60875269371908E-16   9.73346087598287E-01   9.73346087598287E-01
      0.00000000000000E+00   0.00000000000000E+00   5.43169139813651E-16   3.08367470172684E-20   5.43199976560669E-16
      8.24776066361691E-16  -5.00000000000000E-01  -5.00000000000000E-01   0.00000000000000E+00   0.00000000000000E+00
      0.00000000000000E+00   0.00000000000000E+00   0.00000000000000E+00  -6.26484062496232E-16
      1.00000000000000E+00
      0.00000000000000E+00   0.00000000000000E+00   0.00000000000000E+00   0.00000000000000E+00  -6.56980462416927E-16
     -2.71940333784451E-18  -6.59699865754772E-16   3.60481011877645E-16   1.00000000000000E+00   1.00000000000000E+00
      0.00000000000000E+00   0.00000000000000E+00   6.12486255280515E-16   3.08777843157149E-20   6.12517133064831E-16
      8.31926101275228E-16  -5.00000000000000E-01  -5.00000000000000E-01   0.00000000000000E+00   0.00000000000000E+00
      0.00000000000000E+00   0.00000000000000E+00   0.00000000000000E+00  -6.31540726978569E-16
      0.00000000000000E+00
      0.00000000000000E+00   0.00000000000000E+00   0.00000000000000E+00   0.00000000000000E+00  -6.14641334042542E-16
     -2.71938076171120E-18  -6.17360714804254E-16   3.60481052973039E-16   1.00000000000000E+00   1.00000000000000E+00
      0.00000000000000E+00   0.00000000000000E+00   6.22643673682267E-16   3.08777845653256E-20   6.22674551466832E-16
      8.31926121101916E-16  -5.00000000000000E-01  -5.00000000000000E-01   0.00000000000000E+00   0.00000000000000E+00
      0.00000000000000E+00   0.00000000000000E+00   0.00000000000000E+00  -6.31540569967420E-16
      1.00000000000000E-03
      0.00000000000000E+00   0.00000000000000E+00   0.00000000000000E+00   0.00000000000000E+00  -6.27981151252320E-16
     -2.66900397762370E-18  -6.30650155229944E-16   3.60481873025954E-16   1.00000000000000E+00   1.00000000000000E+00
      0.00000000000000E+00   0.00000000000000E+00   6.21838941384723E-16   3.08778548129360E-20   6.21869819239536E-16
      8.31633354870636E-16  -4.98000000000000E-01  -4.98000000000000E-01   0.00000000000000E+00   0.00000000000000E+00
      0.00000000000000E+00   0.00000000000000E+00   0.00000000000000E+00  -6.29292940876097E-16
      2.13333333333333E-03
      0.00000000000000E+00   0.00000000000000E+00   0.00000000000000E+00   0.00000000000000E+00  -6.06177768755049E-16
     -2.61197060798197E-18  -6.08789739363031E-16   3.60484002583415E-16   1.00000000000000E+00   1.00000000000000E+00
      0.00000000000000E+00   0.00000000000000E+00   5.99922533354761E-16   3.08779413192921E-20   5.99953411296080E-16
      8.31301666215656E-16  -4.95733333333333E-01  -4.95733333333333E-01   0.00000000000000E+00   0.00000000000000E+00
      0.00000000000000E+00   0.00000000000000E+00   0.00000000000000E+00  -6.26743855048186E-16
      3.47822222222222E-03
      0.00000000000000E+00   0.00000000000000E+00   0.00000000000000E+00   0.00000000000000E+00  -6.12684621645320E-16
     -2.54436527102165E-18  -6.15228986916342E-16   3.60488305976985E-16   1.00000000000000E+00   1.00000000000000E+00
      0.00000000000000E+00   0.00000000000000E+00   6.07685845650776E-16   3.08780540559255E-20   6.07716723704832E-16
      8.30908246369616E-16  -4.93043555555556E-01  -4.93043555555556E-01   0.00000000000000E+00   0.00000000000000E+00
      0.00000000000000E+00   0.00000000000000E+00   0.00000000000000E+00  -6.23716211952278E-16
      5.07415703703704E-03
      0.00000000000000E+00   0.00000000000000E+00   0.00000000000000E+00   0.00000000000000E+00  -6.03025272101586E-16
     -2.46434764214339E-18  -6.05489619743730E-16   3.60495896440968E-16   1.00000000000000E+00   1.00000000000000E+00
      0.00000000000000E+00   0.00000000000000E+00   5.97011579630092E-16   3.08782016584773E-20   5.97042457831751E-16
      8.30441587274739E-16  -4.89851685925926E-01  -4.89851685925926E-01   0.00000000000000E+00   0.00000000000000E+00
      0.00000000000000E+00   0.00000000000000E+00   0.00000000000000E+00  -6.20119942397070E-16
      6.96799968395062E-03
      0.00000000000000E+00   0.00000000000000E+00   0.00000000000000E+00   0.00000000000000E+00  -6.07900516309041E-16
     -2.36983483144106E-18  -6.10270351140482E-16   3.60508406345711E-16   1.00000000000000E+00   1.00000000000000E+00
      0.00000000000000E+00   0.00000000000000E+00   5.92673456969427E-16   3.08783958450442E-20   5.92704335365272E-16
      8.29888013308128E-16  -4.86064000632099E-01  -4.86064000632099E-01   0.00000000000000E+00   0.00000000000000E+00
      0.00000000000000E+00   0.00000000000000E+00   0.00000000000000E+00  -6.15847999378841E-16
      9.21535962495473E-03
      0.00000000000000E+00   0.00000000000000E+00   0.00000000000000E+00   0.00000000000000E+00  -6.23328791944136E-16
     -2.25856461521041E-18  -6.25587356559346E-16   3.60528144919540E-16   1.00000000000000E+00   1.00000000000000E+00
      0.00000000000000E+00   0.00000000000000E+00   5.93200625671977E-16   3.08786520520912E-20   5.93231504324029E-16
      8.29231211571650E-16  -4.81569280750091E-01  -4.81569280750091E-01   0.00000000000000E+00   0.00000000000000E+00
      0.00000000000000E+00   0.00000000000000E+00   0.00000000000000E+00  -6.10773536228358E-16
      1.18822267549463E-02
      0.00000000000000E+00   0.00000000000000E+00   0.00000000000000E+00   0.00000000000000E+00  -6.30672958724004E-16
     -2.12823453397650E-18  -6.32801193257980E-16   3.60558284919270E-16   1.00000000000000E+00   1.00000000000000E+00
      0.00000000000000E+00   0.00000000000000E+00   5.76054858507659E-16   3.08789899685929E-20   5.76085737497628E-16
      8.28451619924732E-16  -4.76235546490107E-01  -4.76235546490107E-01   0.00000000000000E+00   0.00000000000000E+00
      0.00000000000000E+00   0.00000000000000E+00   0.00000000000000E+00  -6.04746909384236E-16
      1.50469090825362E-02
      0.00000000000000E+00   0.00000000000000E+00   0.00000000000000E+00   0.00000000000000E+00  -5.89844975102223E-16
     -1.97677137632855E-18  -5.91821746478551E-16   3.60603031185991E-16   1.00000000000000E+00   1.00000000000000E+00
      0.00000000000000E+00   0.00000000000000E+00   5.76934200257965E-16   3.08794334958119E-20   5.76965079691461E-16
      8.27525592128869E-16  -4.69906181834927E-01  -4.69906181834927E-01   0.00000000000000E+00   0.00000000000000E+00
      0.00000000000000E+00   0.00000000000000E+00   0.00000000000000E+00  -5.97592884882286E-16
      1.87601363469085E-02
      0.00000000000000E+00   0.00000000000000E+00   0.00000000000000E+00   0.00000000000000E+00  -6.04773704947804E-16
     -1.80470356071779E-18  -6.06578408508522E-16   3.60666896324542E-16   1.00000000000000E+00   1.00000000000000E+00
      0.00000000000000E+00   0.00000000000000E+00   5.71712655887024E-16   3.08800026325128E-20   5.71743535889657E-16
      8.26436618355402E-16  -4.62479727306183E-01  -4.62479727306183E-01   0.00000000000000E+00   0.00000000000000E+00
      0.00000000000000E+00   0.00000000000000E+00   0.00000000000000E+00  -5.89203969670204E-16
      2.31169896704386E-02
      0.00000000000000E+00   0.00000000000000E+00   0.00000000000000E+00   0.00000000000000E+00  -5.53254591495383E-16
     -1.61266073909511E-18  -5.54867252234478E-16   3.60754430553922E-16   1.00000000000000E+00   1.00000000000000E+00
      0.00000000000000E+00   0.00000000000000E+00   5.49857181501893E-16   3.08807135058389E-20   5.49888062215399E-16
      8.25153123315466E-16  -4.53766020659123E-01  -4.53766020659123E-01   0.00000000000000E+00   0.00000000000000E+00
      0.00000000000000E+00   0.00000000000000E+00   0.00000000000000E+00  -5.79386620638416E-16
      2.81709395257335E-02
      0.00000000000000E+00   0.00000000000000E+00   0.00000000000000E+00   0.00000000000000E+00  -5.81447631385553E-16
     -1.40603907913263E-18  -5.82853670464686E-16   3.60866643667609E-16   1.00000000000000E+00   1.00000000000000E+00
      0.00000000000000E+00   0.00000000000000E+00   5.28295670580166E-16   3.08815504476407E-20   5.28326552130613E-16
      8.23652258528311E-16  -4.43658120948533E-01  -4.43658120948533E-01   0.00000000000000E+00   0.00000000000000E+00
      0.00000000000000E+00   0.00000000000000E+00   0.00000000000000E+00  -5.68067456620476E-16
      3.40335213578755E-02
      0.00000000000000E+00   0.00000000000000E+00   0.00000000000000E+00   0.00000000000000E+00  -5.27057909025846E-16
     -1.19165957214120E-18  -5.28249568597987E-16   3.60997411533806E-16   1.00000000000000E+00   1.00000000000000E+00
      0.00000000000000E+00   0.00000000000000E+00   5.10692572048374E-16   3.08824471509316E-20   5.10723454495525E-16
      8.21887651682635E-16  -4.31932957284249E-01  -4.31932957284249E-01   0.00000000000000E+00   0.00000000000000E+00
      0.00000000000000E+00   0.00000000000000E+00   0.00000000000000E+00  -5.55094719594718E-16
      4.07559485253985E-02
      0.00000000000000E+00   0.00000000000000E+00   0.00000000000000E+00   0.00000000000000E+00  -5.18225021959857E-16
     -9.82198810631937E-19  -5.19207220770489E-16   3.61123023298793E-16   1.00000000000000E+00   1.00000000000000E+00