DF-ISE text

Info {
  version   = 1.0
  type      = xyplot
  datasets  = [
    "time"
    "S OuterVoltage" "S InnerVoltage" "S QuasiFermiPotential" "S DisplacementCurrent" "S eCurrent"
    "S hCurrent" "S TotalCurrent" "S Charge" "D OuterVoltage" "D InnerVoltage"
    "D QuasiFermiPotential" "D DisplacementCurrent" "D eCurrent" "D hCurrent" "D TotalCurrent"
    "D Charge" "G OuterVoltage" "G InnerVoltage" "G QuasiFermiPotential" "G DisplacementCurrent"
    "G eCurrent" "G hCurrent" "G TotalCurrent" "G Charge" ]
  functions = [
    Time
    OuterVoltage InnerVoltage QuasiFermiPotential DisplacementCurrent eCurrent
    hCurrent TotalCurrent Charge OuterVoltage InnerVoltage
    QuasiFermiPotential DisplacementCurrent eCurrent hCurrent TotalCurrent
    Charge OuterVoltage InnerVoltage QuasiFermiPotential DisplacementCurrent
    eCurrent hCurrent TotalCurrent Charge ]
}

Data {
      0.00000000000000E+00
      0.00000000000000E+00   0.00000000000000E+00   0.00000000000000E+00   0.00000000000000E+00  -8.29654171787786E-19
     -2.23415814232762E-35  -8.29654171787786E-19   4.06741002030176E-16   0.00000000000000E+00   0.00000000000000E+00
      0.00000000000000E+00   0.00000000000000E+00   3.83720550932421E-37  -7.63137175294495E-35  -7.59299969785171E-35
      5.89375197242745E-16  -5.00000000000000E-01  -5.00000000000000E-01   0.00000000000000E+00   0.00000000000000E+00
      0.00000000000000E+00   0.00000000000000E+00   0.00000000000000E+00  -3.16555140245574E-16
      0.00000000000000E+00
      0.00000000000000E+00   0.00000000000000E+00   0.00000000000000E+00   0.00000000000000E+00   6.63656792908293E-18
      2.43058682227732E-32   6.63656792908295E-18   4.06741002018833E-16   0.00000000000000E+00   0.00000000000000E+00
      0.00000000000000E+00   0.00000000000000E+00  -5.76592322910251E-18   2.44426603855400E-32  -5.76592322910249E-18
      5.89375197213362E-16  -5.00000000000000E-01  -5.00000000000000E-01   0.00000000000000E+00   0.00000000000000E+00
      0.00000000000000E+00   0.00000000000000E+00   0.00000000000000E+00  -3.16555140245714E-16
      1.00000000000000E-03
      0.00000000000000E+00   0.00000000000000E+00   0.00000000000000E+00   0.00000000000000E+00   5.37369990621393E-18
     -7.59481383543788E-22   5.37294042483038E-18   4.06581379654633E-16   1.00000000000000E-03   1.00000000000000E-03
      0.00000000000000E+00   0.00000000000000E+00   6.17223914388760E-18   3.54765493544591E-22   6.17259390938115E-18
      5.89580978952669E-16  -5.00000000000000E-01  -5.00000000000000E-01   0.00000000000000E+00   0.00000000000000E+00
      0.00000000000000E+00   0.00000000000000E+00   0.00000000000000E+00  -3.17338397124232E-16
      2.17333333333333E-03
      0.00000000000000E+00   0.00000000000000E+00   0.00000000000000E+00   0.00000000000000E+00  -8.61937395901187E-19
     -1.67904239673287E-21  -8.63616438297920E-19   4.06393329931719E-16   2.17333333333333E-03   2.17333333333333E-03
      0.00000000000000E+00   0.00000000000000E+00   8.28785416944325E-19   7.62789567960213E-22   8.29548206512285E-19
      5.89821759951589E-16  -5.00000000000000E-01  -5.00000000000000E-01   0.00000000000000E+00   0.00000000000000E+00
      0.00000000000000E+00   0.00000000000000E+00   0.00000000000000E+00  -3.18260066369210E-16
      3.56568888888889E-03
      0.00000000000000E+00   0.00000000000000E+00   0.00000000000000E+00   0.00000000000000E+00   1.60704770215356E-18
     -2.81155011852872E-21   1.60423615203503E-18   4.06169123015583E-16   3.56568888888889E-03   3.56568888888889E-03
      0.00000000000000E+00   0.00000000000000E+00   8.33541681391178E-19   1.23576776162123E-21   8.34777449152799E-19
      5.90106559691767E-16  -5.00000000000000E-01  -5.00000000000000E-01   0.00000000000000E+00   0.00000000000000E+00
      0.00000000000000E+00   0.00000000000000E+00   0.00000000000000E+00  -3.19357448482426E-16
      5.21795081481481E-03
      0.00000000000000E+00   0.00000000000000E+00   0.00000000000000E+00   0.00000000000000E+00  -9.71411675366338E-18
     -4.21613745446895E-21  -9.71833289111785E-18   4.05901595464293E-16   5.21795081481481E-03   5.21795081481481E-03
      0.00000000000000E+00   0.00000000000000E+00  -4.72096620323517E-19   1.78177404337211E-21  -4.70314846280145E-19
      5.90443235521892E-16  -5.00000000000000E-01  -5.00000000000000E-01   0.00000000000000E+00   0.00000000000000E+00
      0.00000000000000E+00   0.00000000000000E+00   0.00000000000000E+00  -3.20664768635096E-16
      7.17863496691358E-03
      0.00000000000000E+00   0.00000000000000E+00   0.00000000000000E+00   0.00000000000000E+00  -8.78560033870552E-18
     -5.97277374990536E-21  -8.79157311245542E-18   4.05582091382767E-16   7.17863496691358E-03   7.17863496691358E-03
      0.00000000000000E+00   0.00000000000000E+00   7.89635474961299E-18   2.40906366067360E-21   7.89876381327366E-18
      5.90840980129841E-16  -5.00000000000000E-01  -5.00000000000000E-01   0.00000000000000E+00   0.00000000000000E+00
      0.00000000000000E+00   0.00000000000000E+00   0.00000000000000E+00  -3.22223163477626E-16
      9.50531349407078E-03
      0.00000000000000E+00   0.00000000000000E+00   0.00000000000000E+00   0.00000000000000E+00  -2.61912980883129E-18
     -8.19163520913695E-21  -2.62732144404043E-18   4.05200130297239E-16   9.50531349407078E-03   9.50531349407078E-03
      0.00000000000000E+00   0.00000000000000E+00   8.61817359311607E-19   3.12575371069597E-21   8.64943113022303E-19
      5.91310527905804E-16  -5.00000000000000E-01  -5.00000000000000E-01   0.00000000000000E+00   0.00000000000000E+00
      0.00000000000000E+00   0.00000000000000E+00   0.00000000000000E+00  -3.24082143110889E-16
      1.22663053462973E-02
      0.00000000000000E+00   0.00000000000000E+00   0.00000000000000E+00   0.00000000000000E+00  -5.42435335987454E-18
     -1.10276106309539E-20  -5.43538097050550E-18   4.04743011587009E-16   1.22663053462973E-02   1.22663053462973E-02
      0.00000000000000E+00   0.00000000000000E+00   1.68582927475104E-18   3.93945263821623E-21   1.68976872738926E-18
      5.91864403602948E-16  -5.00000000000000E-01  -5.00000000000000E-01   0.00000000000000E+00   0.00000000000000E+00
      0.00000000000000E+00   0.00000000000000E+00   0.00000000000000E+00  -3.26301311806316E-16
      1.55426823442728E-02
      0.00000000000000E+00   0.00000000000000E+00   0.00000000000000E+00   0.00000000000000E+00  -2.97763919992280E-17
     -1.47035386154508E-20  -2.97910955378435E-17   4.04195319321984E-16   1.55426823442728E-02   1.55426823442728E-02
      0.00000000000000E+00   0.00000000000000E+00  -1.11784433457865E-17   4.85674711520023E-21  -1.11735865986713E-17
      5.92517197777177E-16  -5.00000000000000E-01  -5.00000000000000E-01   0.00000000000000E+00   0.00000000000000E+00
      0.00000000000000E+00   0.00000000000000E+00   0.00000000000000E+00  -3.28952489126916E-16
      1.94306497152037E-02
      0.00000000000000E+00   0.00000000000000E+00   0.00000000000000E+00   0.00000000000000E+00  -4.89507174198960E-17
     -1.95481069934204E-20  -4.89702655268894E-17   4.03538355757763E-16   1.94306497152037E-02   1.94306497152037E-02
      0.00000000000000E+00   0.00000000000000E+00  -2.98391890093569E-17   5.88274081944139E-21  -2.98333062685375E-17
      5.93285924998744E-16  -5.00000000000000E-01  -5.00000000000000E-01   0.00000000000000E+00   0.00000000000000E+00
      0.00000000000000E+00   0.00000000000000E+00   0.00000000000000E+00  -3.32122103300272E-16
      2.40443709953751E-02
      0.00000000000000E+00   0.00000000000000E+00   0.00000000000000E+00   0.00000000000000E+00  -1.05066868640346E-17
     -2.60597011723864E-20  -1.05327465652070E-17   4.02749494564668E-16   2.40443709953751E-02   2.40443709953751E-02
      0.00000000000000E+00   0.00000000000000E+00   6.52180932193725E-18   7.02066406667447E-21   6.52882998600392E-18
      5.94190486866618E-16  -5.00000000000000E-01  -5.00000000000000E-01   0.00000000000000E+00   0.00000000000000E+00
      0.00000000000000E+00   0.00000000000000E+00   0.00000000000000E+00  -3.35913880188725E-16
      2.94578039641095E-02
      0.00000000000000E+00   0.00000000000000E+00   0.00000000000000E+00   0.00000000000000E+00  -1.66993213064221E-17
     -3.49076145542540E-20  -1.67342289209764E-17   4.01812296213801E-16   2.94578039641095E-02   2.94578039641095E-02
      0.00000000000000E+00   0.00000000000000E+00   1.37248013364537E-17   8.25849360134132E-21   1.37330598300551E-17
      5.95242503042268E-16  -5.00000000000000E-01  -5.00000000000000E-01   0.00000000000000E+00   0.00000000000000E+00
      0.00000000000000E+00   0.00000000000000E+00   0.00000000000000E+00  -3.40400107795037E-16
      3.58095653140912E-02
      0.00000000000000E+00   0.00000000000000E+00   0.00000000000000E+00   0.00000000000000E+00  -1.40978754524080E-17
     -4.72332974777366E-20  -1.41451087498857E-17   4.00698772487561E-16   3.58095653140912E-02   3.58095653140912E-02
      0.00000000000000E+00   0.00000000000000E+00   1.67279314733977E-17   9.59517604028395E-21   1.67375266494380E-17
      5.96466153912479E-16  -5.00000000000000E-01  -5.00000000000000E-01   0.00000000000000E+00   0.00000000000000E+00
      0.00000000000000E+00   0.00000000000000E+00   0.00000000000000E+00  -3.45706677669110E-16
      4.32622986314031E-02
      0.00000000000000E+00   0.00000000000000E+00   0.00000000000000E+00   0.00000000000000E+00  -2.55811143439827E-17
     -6.48993926228997E-20  -2.56460137366056E-17   3.99376790891163E-16   4.32622986314031E-02   4.32622986314031E-02
      0.00000000000000E+00   0.00000000000000E+00   2.40809517019294E-17   1.10299383701792E-20   2.40919816402996E-17
      5.97890829430749E-16  -5.00000000000000E-01  -5.00000000000000E-01   0.00000000000000E+00   0.00000000000000E+00
      0.00000000000000E+00   0.00000000000000E+00   0.00000000000000E+00  -3.51977188040830E-16
      5.20068390570490E-02
      0.00000000000000E+00   0.00000000000000E+00   0.00000000000000E+00   0.00000000000000E+00  -3.69214137956681E-17
     -9.10445299557548E-20  -3.70124583256238E-17   3.97810637561237E-16   5.20068390570490E-02   5.20068390570490E-02
      0.00000000000000E+00   0.00000000000000E+00   2.52959543625561E-17   1.25641334349150E-20   2.53085184959911E-17
      5.99553362896357E-16  -5.00000000000000E-01  -5.00000000000000E-01   0.00000000000000E+00   0.00000000000000E+00
      0.00000000000000E+00   0.00000000000000E+00   0.00000000000000E+00  -3.59370575811484E-16
      6.22670998231402E-02
      0.00000000000000E+00   0.00000000000000E+00   0.00000000000000E+00   0.00000000000000E+00  -4.10961378887365E-17
     -1.31130859659987E-19  -4.12272687483965E-17   3.95962654477474E-16   6.22670998231402E-02   6.22670998231402E-02
      0.00000000000000E+00   0.00000000000000E+00   3.15880657606591E-17   1.42032332442071E-20   3.16022689939033E-17
      6.01501568481711E-16  -5.00000000000000E-01  -5.00000000000000E-01   0.00000000000000E+00   0.00000000000000E+00
      0.00000000000000E+00   0.00000000000000E+00   0.00000000000000E+00  -3.68054511042398E-16
      7.43058057886872E-02
      0.00000000000000E+00   0.00000000000000E+00   0.00000000000000E+00   0.00000000000000E+00  -4.14079193562538E-17
     -1.94961166396429E-19  -4.16028805226502E-17   3.93796548798712E-16   7.43058057886872E-02   7.43058057886872E-02
      0.00000000000000E+00   0.00000000000000E+00   4.37736623317738E-17   1.59575555212789E-20   4.37896198872951E-17
      6.03799632831711E-16  -5.00000000000000E-01  -5.00000000000000E-01   0.00000000000000E+00   0.00000000000000E+00
      0.00000000000000E+00   0.00000000000000E+00   0.00000000000000E+00  -3.78192344782176E-16
      8.84312207882624E-02
      0.00000000000000E+00   0.00000000000000E+00   0.00000000000000E+00   0.00000000000000E+00  -1.56951548444494E-16
     -3.00586923410906E-19  -1.57252135367905E-16   3.91283302254564E-16   8.84312207882624E-02   8.84312207882624E-02
      0.00000000000000E+00   0.00000000000000E+00  -4.66626033433862E-18   1.78393570966168E-20  -4.64842097724201E-18
      6.06536160709348E-16  -5.00000000000000E-01  -5.00000000000000E-01   0.00000000000000E+00   0.00000000000000E+00
      0.00000000000000E+00   0.00000000000000E+00   0.00000000000000E+00  -3.89920205284406E-16
      1.05005041054431E-01
      0.00000000000000E+00   0.00000000000000E+00   0.00000000000000E+00   0.00000000000000E+00  -1.24384001930073E-16
     -4.81734945063733E-19  -1.24865736875136E-16   3.88410913779150E-16   1.05005041054431E-01   1.05005041054431E-01
      0.00000000000000E+00   0.00000000000000E+00   2.27689268121581E-17   1.98524979792112E-20   2.27887793101373E-17
      6.09835817011383E-16  -5.00000000000000E-01  -5.00000000000000E-01   0.00000000000000E+00   0.00000000000000E+00
      0.00000000000000E+00   0.00000000000000E+00   0.00000000000000E+00  -4.03309786706836E-16
      1.24230672563186E-01
      0.00000000000000E+00   0.00000000000000E+00   0.00000000000000E+00   0.00000000000000E+00  -8.85481161275682E-17
     -7.96643888440746E-19  -8.93447600160089E-17   3.85233758739660E-16   1.24230672563186E-01   1.24230672563186E-01
      0.00000000000000E+00   0.00000000000000E+00   7.30867293104926E-17   2.19469253018713E-20   7.31086762357944E-17
      6.13827340399873E-16  -5.00000000000000E-01  -5.00000000000000E-01   0.00000000000000E+00   0.00000000000000E+00
      0.00000000000000E+00   0.00000000000000E+00   0.00000000000000E+00  -4.18150197599937E-16
      1.46276063359891E-01
      0.00000000000000E+00   0.00000000000000E+00   0.00000000000000E+00   0.00000000000000E+00  -1.93760658211594E-16
     -1.33986870679935E-18  -1.95100526918393E-16   3.81859488570950E-16   1.46276063359891E-01   1.46276063359891E-01
      0.00000000000000E+00   0.00000000000000E+00   6.65241751991291E-17   2.40149195811566E-20   6.65481901187102E-17
      6.18671686576304E-16  -5.00000000000000E-01  -5.00000000000000E-01   0.00000000000000E+00   0.00000000000000E+00
      0.00000000000000E+00   0.00000000000000E+00   0.00000000000000E+00  -4.34021129172458E-16
      1.71554778140114E-01
      0.00000000000000E+00   0.00000000000000E+00   0.00000000000000E+00   0.00000000000000E+00  -1.55623228405924E-16
     -2.25466481143862E-18  -1.57877893217362E-16   3.78412760947427E-16   1.71554778140114E-01   1.71554778140114E-01
      0.00000000000000E+00   0.00000000000000E+00   1.16122404279352E-16   2.59057012298869E-20   1.16148309980582E-16
      6.24623762798940E-16  -5.00000000000000E-01  -5.00000000000000E-01   0.00000000000000E+00   0.00000000000000E+00
      0.00000000000000E+00   0.00000000000000E+00   0.00000000000000E+00  -4.50472637002816E-16
      2.00203988224367E-01
      0.00000000000000E+00   0.00000000000000E+00   0.00000000000000E+00   0.00000000000000E+00  -2.64971838226932E-16
     -3.69087815559364E-18  -2.68662716382526E-16   3.75097232272644E-16   2.00203988224367E-01   2.00203988224367E-01
      0.00000000000000E+00   0.00000000000000E+00   1.46271579712319E-16   2.74198282886972E-20   1.46298999540608E-16
      6.31890536742004E-16  -5.00000000000000E-01  -5.00000000000000E-01   0.00000000000000E+00   0.00000000000000E+00
      0.00000000000000E+00   0.00000000000000E+00   0.00000000000000E+00  -4.66724087942314E-16
      2.32673092986519E-01
      0.00000000000000E+00   0.00000000000000E+00   0.00000000000000E+00   0.00000000000000E+00  -2.24015286254828E-16
     -5.75240109462890E-18  -2.29767687349457E-16   3.72073479499383E-16   2.32673092986519E-01   2.32673092986519E-01
      0.00000000000000E+00   0.00000000000000E+00   2.12112248730340E-16   2.84528985989099E-20   2.12140701628939E-16
      6.40717927299912E-16  -5.00000000000000E-01  -5.00000000000000E-01   0.00000000000000E+00   0.00000000000000E+00
      0.00000000000000E+00   0.00000000000000E+00   0.00000000000000E+00  -4.82212089143004E-16
      2.69038490320130E-01
      0.00000000000000E+00   0.00000000000000E+00   0.00000000000000E+00   0.00000000000000E+00  -2.95493076993156E-16
     -8.37924259140000E-18  -3.03872319584556E-16   3.69480060518067E-16   2.69038490320130E-01   2.69038490320130E-01
      0.00000000000000E+00   0.00000000000000E+00   2.80755098072440E-16   2.90423138857361E-20   2.80784140386326E-16
      6.51159590549766E-16  -5.00000000000000E-01  -5.00000000000000E-01   0.00000000000000E+00   0.00000000000000E+00
      0.00000000000000E+00   0.00000000000000E+00   0.00000000000000E+00  -4.96425462150102E-16
      3.09767735333775E-01
      0.00000000000000E+00   0.00000000000000E+00   0.00000000000000E+00   0.00000000000000E+00  -3.62011620804091E-16
     -1.13381094298982E-17  -3.73349730233989E-16   3.67367944973128E-16   3.09767735333775E-01   3.09767735333775E-01
      0.00000000000000E+00   0.00000000000000E+00   3.33552636242323E-16   2.93511767185128E-20   3.33581987419042E-16
      6.63302365557740E-16  -5.00000000000000E-01  -5.00000000000000E-01   0.00000000000000E+00   0.00000000000000E+00
      0.00000000000000E+00   0.00000000000000E+00   0.00000000000000E+00  -5.09243150058314E-16
      3.55384489749057E-01
      0.00000000000000E+00   0.00000000000000E+00   0.00000000000000E+00   0.00000000000000E+00  -4.26810974200518E-16
     -1.41559243371527E-17  -4.40966898537671E-16   3.65788158744782E-16   3.55384489749057E-01   3.55384489749057E-01
      0.00000000000000E+00   0.00000000000000E+00   4.02008432055234E-16   2.95340380687574E-20   4.02037966093303E-16
      6.77247108663421E-16  -5.00000000000000E-01  -5.00000000000000E-01   0.00000000000000E+00   0.00000000000000E+00
      0.00000000000000E+00   0.00000000000000E+00   0.00000000000000E+00  -5.20553601493730E-16
      4.06475254694172E-01
      0.00000000000000E+00   0.00000000000000E+00   0.00000000000000E+00   0.00000000000000E+00  -4.70971560483518E-16
     -1.63679438381179E-17  -4.87339504321635E-16   3.64716393349255E-16   4.06475254694172E-01   4.06475254694172E-01
      0.00000000000000E+00   0.00000000000000E+00   4.40335474262580E-16   2.96788810685171E-20   4.40365153143649E-16
      6.93072047633847E-16  -5.00000000000000E-01  -5.00000000000000E-01   0.00000000000000E+00   0.00000000000000E+00
      0.00000000000000E+00   0.00000000000000E+00   0.00000000000000E+00  -5.30547702622207E-16
      4.63696911432701E-01
      0.00000000000000E+00   0.00000000000000E+00   0.00000000000000E+00   0.00000000000000E+00  -5.14991114336932E-16
     -1.79106755315329E-17  -5.32901789868465E-16   3.64000499190692E-16   4.63696911432701E-01   4.63696911432701E-01
      0.00000000000000E+00   0.00000000000000E+00   5.14465985826210E-16   2.98198036645020E-20   5.14495805629874E-16
      7.10799963390778E-16  -5.00000000000000E-01  -5.00000000000000E-01   0.00000000000000E+00   0.00000000000000E+00
      0.00000000000000E+00   0.00000000000000E+00   0.00000000000000E+00  -5.39919832206981E-16
      5.27785166979854E-01
      0.00000000000000E+00   0.00000000000000E+00   0.00000000000000E+00   0.00000000000000E+00  -6.38153521084132E-16
     -1.89866929411962E-17  -6.57140214025329E-16   3.63472159073323E-16   5.27785166979854E-01   5.27785166979854E-01
      0.00000000000000E+00   0.00000000000000E+00   5.51037849372263E-16   2.99672731176056E-20   5.51067816645380E-16
      7.30471796379887E-16  -5.00000000000000E-01  -5.00000000000000E-01   0.00000000000000E+00   0.00000000000000E+00
      0.00000000000000E+00   0.00000000000000E+00   0.00000000000000E+00  -5.49441643644823E-16
      6.00418523266628E-01
      0.00000000000000E+00   0.00000000000000E+00   0.00000000000000E+00   0.00000000000000E+00  -6.45256340244331E-16
     -1.97908925157199E-17  -6.65047232760051E-16   3.63014986449024E-16   6.00418523266628E-01   6.00418523266628E-01
      0.00000000000000E+00   0.00000000000000E+00   6.32363759887977E-16   3.01258814995252E-20   6.32393885769477E-16
      7.52438469588809E-16  -5.00000000000000E-01  -5.00000000000000E-01   0.00000000000000E+00   0.00000000000000E+00
      0.00000000000000E+00   0.00000000000000E+00   0.00000000000000E+00  -5.59812853115161E-16
      6.82736327058304E-01
      0.00000000000000E+00   0.00000000000000E+00   0.00000000000000E+00   0.00000000000000E+00  -7.10439055570232E-16
     -2.06813374231680E-17  -7.31120392993400E-16   3.62477239439630E-16   6.82736327058304E-01   6.82736327058304E-01
      0.00000000000000E+00   0.00000000000000E+00   7.37261017229044E-16   3.02940995924156E-20   7.37291311328637E-16
      7.76825984763456E-16  -5.00000000000000E-01  -5.00000000000000E-01   0.00000000000000E+00   0.00000000000000E+00
      0.00000000000000E+00   0.00000000000000E+00   0.00000000000000E+00  -5.71822701700877E-16
      7.78224979456649E-01
      0.00000000000000E+00   0.00000000000000E+00   0.00000000000000E+00   0.00000000000000E+00  -1.05137168502305E-15
     -2.20399277426554E-17  -1.07341161276570E-15   3.61707153364558E-16   7.78224979456649E-01   7.78224979456649E-01
      0.00000000000000E+00   0.00000000000000E+00   8.94517717536443E-16   3.04760295702864E-20   8.94548193566013E-16
      8.04428651397054E-16  -5.00000000000000E-01  -5.00000000000000E-01   0.00000000000000E+00   0.00000000000000E+00
      0.00000000000000E+00   0.00000000000000E+00   0.00000000000000E+00  -5.86550578117969E-16
      8.87718634206751E-01
      0.00000000000000E+00   0.00000000000000E+00   0.00000000000000E+00   0.00000000000000E+00  -1.18136600590783E-15
     -2.31102912366352E-17  -1.20447629714446E-15   3.60903015312789E-16   8.87718634206751E-01   8.87718634206751E-01
      0.00000000000000E+00   0.00000000000000E+00   1.18750849797348E-15   3.06722279234404E-20   1.18753917020140E-15
      8.35428447008204E-16  -5.00000000000000E-01  -5.00000000000000E-01   0.00000000000000E+00   0.00000000000000E+00
      0.00000000000000E+00   0.00000000000000E+00   0.00000000000000E+00  -6.03408747714725E-16
      1.00000000000000E+00
      0.00000000000000E+00   0.00000000000000E+00   0.00000000000000E+00   0.00000000000000E+00  -1.68533215691397E-15
     -2.38872057754375E-17  -1.70921936268941E-15   3.60067283574583E-16   1.00000000000000E+00   1.00000000000000E+00
      0.00000000000000E+00   0.00000000000000E+00   1.63493923517252E-15   3.08614494989782E-20   1.63497009662202E-15
      8.66594003625707E-16  -5.00000000000000E-01  -5.00000000000000E-01   0.00000000000000E+00   0.00000000000000E+00
      0.00000000000000E+00   0.00000000000000E+00   0.00000000000000E+00  -6.20820049392502E-16
      0.00000000000000E+00
      0.00000000000000E+00   0.00000000000000E+00   0.00000000000000E+00   0.00000000000000E+00  -1.62961781728412E-15
     -2.38869732502990E-17  -1.65350479053442E-15   3.60067347700198E-16   1.00000000000000E+00   1.00000000000000E+00
      0.00000000000000E+00   0.00000000000000E+00   1.65512787164159E-15   3.08614498533769E-20   1.65515873309144E-15
      8.66594034079298E-16  -5.00000000000000E-01  -5.00000000000000E-01   0.00000000000000E+00   0.00000000000000E+00
      0.00000000000000E+00   0.00000000000000E+00   0.00000000000000E+00  -6.20819815967692E-16
      1.00000000000000E-03
      0.00000000000000E+00   0.00000000000000E+00   0.00000000000000E+00   0.00000000000000E+00  -1.65027624037349E-15
     -2.38006866960386E-17  -1.67407692706953E-15   3.60063766669254E-16   1.00000000000000E+00   1.00000000000000E+00
      0.00000000000000E+00   0.00000000000000E+00   1.65147745127438E-15   3.08612860934014E-20   1.65150831256047E-15
      8.66305937280483E-16  -4.98000000000000E-01  -4.98000000000000E-01   0.00000000000000E+00   0.00000000000000E+00
      0.00000000000000E+00   0.00000000000000E+00   0.00000000000000E+00  -6.18563947037712E-16
      2.14666666666667E-03
      0.00000000000000E+00   0.00000000000000E+00   0.00000000000000E+00   0.00000000000000E+00  -1.63184213424700E-15
     -2.37018048866311E-17  -1.65554393913364E-15   3.60059627919698E-16   1.00000000000000E+00   1.00000000000000E+00
      0.00000000000000E+00   0.00000000000000E+00   1.63601180921704E-15   3.08610979596608E-20   1.63604267031500E-15
      8.65975321843770E-16  -4.95706666666667E-01  -4.95706666666667E-01   0.00000000000000E+00   0.00000000000000E+00
      0.00000000000000E+00   0.00000000000000E+00   0.00000000000000E+00  -6.15977797564771E-16
      3.52266666666667E-03
      0.00000000000000E+00   0.00000000000000E+00   0.00000000000000E+00   0.00000000000000E+00  -1.61567510549242E-15
     -2.35830698055990E-17  -1.63925817529802E-15   3.60054660316615E-16   1.00000000000000E+00   1.00000000000000E+00
      0.00000000000000E+00   0.00000000000000E+00   1.63604006139040E-15   3.08608719674135E-20   1.63607092226237E-15
      8.65578241389798E-16  -4.92954666666667E-01  -4.92954666666667E-01   0.00000000000000E+00   0.00000000000000E+00
      0.00000000000000E+00   0.00000000000000E+00   0.00000000000000E+00  -6.12875056685885E-16
      5.15552000000000E-03
      0.00000000000000E+00   0.00000000000000E+00   0.00000000000000E+00   0.00000000000000E+00  -1.61724619846510E-15
     -2.34415343095556E-17  -1.64068773277466E-15   3.60048912077005E-16   1.00000000000000E+00   1.00000000000000E+00
      0.00000000000000E+00   0.00000000000000E+00   1.64953856695788E-15   3.08606043176493E-20   1.64956942756220E-15
      8.65106641201883E-16  -4.89688960000000E-01  -4.89688960000000E-01   0.00000000000000E+00   0.00000000000000E+00
      0.00000000000000E+00   0.00000000000000E+00   0.00000000000000E+00  -6.09193474442485E-16
      7.09317262222222E-03
      0.00000000000000E+00   0.00000000000000E+00   0.00000000000000E+00   0.00000000000000E+00  -1.62462203205158E-15
     -2.32729041528947E-17  -1.64789493620448E-15   3.60042238581952E-16   1.00000000000000E+00   1.00000000000000E+00
      0.00000000000000E+00   0.00000000000000E+00   1.64174432651931E-15   3.08602871856168E-20   1.64177518680649E-15
      8.64546446208262E-16  -4.85813654755556E-01  -4.85813654755556E-01   0.00000000000000E+00   0.00000000000000E+00
      0.00000000000000E+00   0.00000000000000E+00   0.00000000000000E+00  -6.04825307201079E-16
      9.39252040059259E-03
      0.00000000000000E+00   0.00000000000000E+00   0.00000000000000E+00   0.00000000000000E+00  -1.62949827608397E-15
     -2.30719242538458E-17  -1.65257020033782E-15   3.60034509991695E-16   1.00000000000000E+00   1.00000000000000E+00
      0.00000000000000E+00   0.00000000000000E+00   1.64528701046083E-15   3.08599115328449E-20   1.64531787037236E-15
      8.63880922153842E-16  -4.81214959198815E-01  -4.81214959198815E-01   0.00000000000000E+00   0.00000000000000E+00
      0.00000000000000E+00   0.00000000000000E+00   0.00000000000000E+00  -5.99642646705490E-16
      1.21210797642588E-02
      0.00000000000000E+00   0.00000000000000E+00   0.00000000000000E+00   0.00000000000000E+00  -1.63419423743279E-15
     -2.28321671501731E-17  -1.65702640458296E-15   3.60025623952090E-16   1.00000000000000E+00   1.00000000000000E+00
      0.00000000000000E+00   0.00000000000000E+00   1.62894942208177E-15   3.08594669654485E-20   1.62898028154874E-15
      8.63090171905761E-16  -4.75757840471482E-01  -4.75757840471482E-01   0.00000000000000E+00   0.00000000000000E+00
      0.00000000000000E+00   0.00000000000000E+00   0.00000000000000E+00  -5.93493644966544E-16
      1.53589702091426E-02
      0.00000000000000E+00   0.00000000000000E+00   0.00000000000000E+00   0.00000000000000E+00  -1.65521407622953E-15
     -2.25458571627493E-17  -1.67775993339228E-15   3.60015500346390E-16   1.00000000000000E+00   1.00000000000000E+00
      0.00000000000000E+00   0.00000000000000E+00   1.63169225104125E-15   3.08589414795879E-20   1.63172310998273E-15
      8.62150528061189E-16  -4.69282059581715E-01  -4.69282059581715E-01   0.00000000000000E+00   0.00000000000000E+00
      0.00000000000000E+00   0.00000000000000E+00   0.00000000000000E+00  -5.86198110761939E-16
      1.92012668704048E-02
      0.00000000000000E+00   0.00000000000000E+00   0.00000000000000E+00   0.00000000000000E+00  -1.68468561662238E-15
     -2.22035381872290E-17  -1.70688915480961E-15   3.60004112212292E-16   1.00000000000000E+00   1.00000000000000E+00
      0.00000000000000E+00   0.00000000000000E+00   1.63998958714181E-15   3.08583214080928E-20   1.64002044546322E-15
      8.61033851425273E-16  -4.61597466259190E-01  -4.61597466259190E-01   0.00000000000000E+00   0.00000000000000E+00
      0.00000000000000E+00   0.00000000000000E+00   0.00000000000000E+00  -5.77542149634656E-16
      2.37607922417692E-02
      0.00000000000000E+00   0.00000000000000E+00   0.00000000000000E+00   0.00000000000000E+00  -1.77597278040765E-15
     -2.17936593723785E-17  -1.79776643978003E-15   3.59991533286316E-16   1.00000000000000E+00   1.00000000000000E+00
      0.00000000000000E+00   0.00000000000000E+00   1.63315485906959E-15   3.08575914888958E-20   1.63318571666108E-15
      8.59706708122153E-16  -4.52478415516462E-01  -4.52478415516462E-01   0.00000000000000E+00   0.00000000000000E+00
      0.00000000000000E+00   0.00000000000000E+00   0.00000000000000E+00  -5.67271762132416E-16
      2.91714290157884E-02
      0.00000000000000E+00   0.00000000000000E+00   0.00000000000000E+00   0.00000000000000E+00  -1.62648346328302E-15
     -2.13024908397996E-17  -1.64778595412282E-15   3.59977879499580E-16   1.00000000000000E+00   1.00000000000000E+00
      0.00000000000000E+00   0.00000000000000E+00   1.61632349697794E-15   3.08567344288555E-20   1.61635435371237E-15
      8.58129347773538E-16  -4.41657141968423E-01  -4.41657141968423E-01   0.00000000000000E+00   0.00000000000000E+00
      0.00000000000000E+00   0.00000000000000E+00   0.00000000000000E+00  -5.55085661337564E-16
      3.55199094973042E-02
      0.00000000000000E+00   0.00000000000000E+00   0.00000000000000E+00   0.00000000000000E+00  -1.63371060025190E-15
     -2.07183274059458E-17  -1.65442892765784E-15   3.59964124111879E-16   1.00000000000000E+00   1.00000000000000E+00