DF-ISE text

Info {
  version   = 1.0
  type      = xyplot
  datasets  = [
    "time"
    "S OuterVoltage" "S InnerVoltage" "S QuasiFermiPotential" "S DisplacementCurrent" "S eCurrent"
    "S hCurrent" "S TotalCurrent" "S Charge" "D OuterVoltage" "D InnerVoltage"
    "D QuasiFermiPotential" "D DisplacementCurrent" "D eCurrent" "D hCurrent" "D TotalCurrent"
    "D Charge" "G OuterVoltage" "G InnerVoltage" "G QuasiFermiPotential" "G DisplacementCurrent"
    "G eCurrent" "G hCurrent" "G TotalCurrent" "G Charge" ]
  functions = [
    Time
    OuterVoltage InnerVoltage QuasiFermiPotential DisplacementCurrent eCurrent
    hCurrent TotalCurrent Charge OuterVoltage InnerVoltage
    QuasiFermiPotential DisplacementCurrent eCurrent hCurrent TotalCurrent
    Charge OuterVoltage InnerVoltage QuasiFermiPotential DisplacementCurrent
    eCurrent hCurrent TotalCurrent Charge ]
}

Data {
      0.00000000000000E+00
      0.00000000000000E+00   0.00000000000000E+00   0.00000000000000E+00   0.00000000000000E+00   2.59398479936741E-25
     -7.36137257385069E-34   2.59398479200603E-25   6.58327562434876E-16   0.00000000000000E+00   0.00000000000000E+00
      0.00000000000000E+00   0.00000000000000E+00  -4.15802732073377E-25  -8.42940069749812E-34  -4.15802732916317E-25
      8.58897113701983E-16  -5.00000000000000E-01  -5.00000000000000E-01   0.00000000000000E+00   0.00000000000000E+00
      0.00000000000000E+00   0.00000000000000E+00   0.00000000000000E+00  -3.10073228578570E-16
      0.00000000000000E+00
      0.00000000000000E+00   0.00000000000000E+00   0.00000000000000E+00   0.00000000000000E+00  -3.08417178985790E-18
     -6.13484480779968E-34  -3.08417178985790E-18   6.58327562434875E-16   0.00000000000000E+00   0.00000000000000E+00
      0.00000000000000E+00   0.00000000000000E+00  -1.02395099520556E-18  -5.79069006599130E-34  -1.02395099520556E-18
      8.58897113701944E-16  -5.00000000000000E-01  -5.00000000000000E-01   0.00000000000000E+00   0.00000000000000E+00
      0.00000000000000E+00   0.00000000000000E+00   0.00000000000000E+00  -3.10073228578583E-16
      1.00000000000000E-03
      0.00000000000000E+00   0.00000000000000E+00   0.00000000000000E+00   0.00000000000000E+00  -4.28350071205582E-18
     -8.19894612002485E-22  -4.28432060666782E-18   6.58092874817807E-16   1.00000000000000E-03   1.00000000000000E-03
      0.00000000000000E+00   0.00000000000000E+00   6.53870322922298E-18   6.21042499015247E-22   6.53932427172200E-18
      8.59207875632657E-16  -5.00000000000000E-01  -5.00000000000000E-01   0.00000000000000E+00   0.00000000000000E+00
      0.00000000000000E+00   0.00000000000000E+00   0.00000000000000E+00  -3.10755397649578E-16
      2.17333333333333E-03
      0.00000000000000E+00   0.00000000000000E+00   0.00000000000000E+00   0.00000000000000E+00  -4.15494385755490E-18
     -1.79741113933920E-21  -4.15674126869424E-18   6.57819530455420E-16   2.17333333333333E-03   2.17333333333333E-03
      0.00000000000000E+00   0.00000000000000E+00   3.50877835465977E-18   1.34353492481889E-21   3.51012188958459E-18
      8.59574693738804E-16  -5.00000000000000E-01  -5.00000000000000E-01   0.00000000000000E+00   0.00000000000000E+00
      0.00000000000000E+00   0.00000000000000E+00   0.00000000000000E+00  -3.11550933612039E-16
      3.56568888888889E-03
      0.00000000000000E+00   0.00000000000000E+00   0.00000000000000E+00   0.00000000000000E+00  -7.90045527265488E-18
     -2.97908213613278E-21  -7.90343435479101E-18   6.57498014581461E-16   3.56568888888889E-03   3.56568888888889E-03
      0.00000000000000E+00   0.00000000000000E+00   1.60283180605048E-17   2.19205494881421E-21   1.60305101154536E-17
      8.60013073178263E-16  -5.00000000000000E-01  -5.00000000000000E-01   0.00000000000000E+00   0.00000000000000E+00
      0.00000000000000E+00   0.00000000000000E+00   0.00000000000000E+00  -3.12488091534158E-16
      5.21795081481481E-03
      0.00000000000000E+00   0.00000000000000E+00   0.00000000000000E+00   0.00000000000000E+00  -2.12402902447537E-17
     -4.41177451570468E-21  -2.12447020192694E-17   6.57120529967294E-16   5.21795081481481E-03   5.21795081481481E-03
      0.00000000000000E+00   0.00000000000000E+00   2.21269527765967E-17   3.18626365341225E-21   2.21301390402501E-17
      8.60537663019259E-16  -5.00000000000000E-01  -5.00000000000000E-01   0.00000000000000E+00   0.00000000000000E+00
      0.00000000000000E+00   0.00000000000000E+00   0.00000000000000E+00  -3.13590425954188E-16
      7.17863496691358E-03
      0.00000000000000E+00   0.00000000000000E+00   0.00000000000000E+00   0.00000000000000E+00  -2.67462512273110E-17
     -6.15455655839232E-21  -2.67524057838694E-17   6.56678328301697E-16   7.17863496691358E-03   7.17863496691358E-03
      0.00000000000000E+00   0.00000000000000E+00   2.64550667605594E-17   4.34775201176016E-21   2.64594145125711E-17
      8.61166390139083E-16  -5.00000000000000E-01  -5.00000000000000E-01   0.00000000000000E+00   0.00000000000000E+00
      0.00000000000000E+00   0.00000000000000E+00   0.00000000000000E+00  -3.14884671231474E-16
      9.50531349407078E-03
      0.00000000000000E+00   0.00000000000000E+00   0.00000000000000E+00   0.00000000000000E+00  -3.32458957822795E-17
     -8.28225050118949E-21  -3.32541780327806E-17   6.56161744494030E-16   9.50531349407078E-03   9.50531349407078E-03
      0.00000000000000E+00   0.00000000000000E+00   3.57080805140481E-17   5.69958980918124E-21   3.57137801038573E-17
      8.61921298208254E-16  -5.00000000000000E-01  -5.00000000000000E-01   0.00000000000000E+00   0.00000000000000E+00
      0.00000000000000E+00   0.00000000000000E+00   0.00000000000000E+00  -3.16400823699713E-16
      1.22663053462973E-02
      0.00000000000000E+00   0.00000000000000E+00   0.00000000000000E+00   0.00000000000000E+00  -3.98062864405843E-17
     -1.08900165480768E-20  -3.98171764571324E-17   6.55560325667912E-16   1.22663053462973E-02   1.22663053462973E-02
      0.00000000000000E+00   0.00000000000000E+00   4.07430438630997E-17   7.26541482461961E-21   4.07503092779243E-17
      8.62829637261430E-16  -5.00000000000000E-01  -5.00000000000000E-01   0.00000000000000E+00   0.00000000000000E+00
      0.00000000000000E+00   0.00000000000000E+00   0.00000000000000E+00  -3.18172025906320E-16
      1.55426823442728E-02
      0.00000000000000E+00   0.00000000000000E+00   0.00000000000000E+00   0.00000000000000E+00  -5.63453657578704E-17
     -1.40991739867931E-20  -5.63594649318572E-17   6.54863102004819E-16   1.55426823442728E-02   1.55426823442728E-02
      0.00000000000000E+00   0.00000000000000E+00   5.18420804580642E-17   9.06780471401149E-21   5.18511482627782E-17
      8.63925281546020E-16  -5.00000000000000E-01  -5.00000000000000E-01   0.00000000000000E+00   0.00000000000000E+00
      0.00000000000000E+00   0.00000000000000E+00   0.00000000000000E+00  -3.20234144730267E-16
      1.94306497152037E-02
      0.00000000000000E+00   0.00000000000000E+00   0.00000000000000E+00   0.00000000000000E+00  -6.75329770936493E-17
     -1.80643646878754E-20  -6.75510414583372E-17   6.54059063347475E-16   1.94306497152037E-02   1.94306497152037E-02
      0.00000000000000E+00   0.00000000000000E+00   6.95786183310996E-17   1.11255870190405E-20   6.95897439181186E-17
      8.65250575826144E-16  -5.00000000000000E-01  -5.00000000000000E-01   0.00000000000000E+00   0.00000000000000E+00
      0.00000000000000E+00   0.00000000000000E+00   0.00000000000000E+00  -3.22624895821452E-16
      2.40443709953751E-02
      0.00000000000000E+00   0.00000000000000E+00   0.00000000000000E+00   0.00000000000000E+00  -8.28235932123494E-17
     -2.29819163314206E-20  -8.28465751286808E-17   6.53137913668830E-16   2.40443709953751E-02   2.40443709953751E-02
      0.00000000000000E+00   0.00000000000000E+00   8.33149297190192E-17   1.34496521075783E-20   8.33283793711268E-17
      8.66858724193189E-16  -5.00000000000000E-01  -5.00000000000000E-01   0.00000000000000E+00   0.00000000000000E+00
      0.00000000000000E+00   0.00000000000000E+00   0.00000000000000E+00  -3.25382348355703E-16
      2.95193202478451E-02
      0.00000000000000E+00   0.00000000000000E+00   0.00000000000000E+00   0.00000000000000E+00  -9.98310484721758E-17
     -2.90986330744847E-20  -9.98601471052503E-17   6.52091183971088E-16   2.95193202478451E-02   2.95193202478451E-02
      0.00000000000000E+00   0.00000000000000E+00   1.04342491373604E-16   1.60368635455120E-20   1.04358528237149E-16
      8.68816850039970E-16  -5.00000000000000E-01  -5.00000000000000E-01   0.00000000000000E+00   0.00000000000000E+00
      0.00000000000000E+00   0.00000000000000E+00   0.00000000000000E+00  -3.28542625593275E-16
      3.60162600274429E-02
      0.00000000000000E+00   0.00000000000000E+00   0.00000000000000E+00   0.00000000000000E+00  -1.24517458500297E-16
     -3.67193779834436E-20  -1.24554177878280E-16   6.50913715604898E-16   3.60162600274429E-02   3.60162600274429E-02
      0.00000000000000E+00   0.00000000000000E+00   1.23030921032656E-16   1.88618473297405E-20   1.23049782879986E-16
      8.71209788688318E-16  -5.00000000000000E-01  -5.00000000000000E-01   0.00000000000000E+00   0.00000000000000E+00
      0.00000000000000E+00   0.00000000000000E+00   0.00000000000000E+00  -3.32136784652024E-16
      4.37259618992322E-02
      0.00000000000000E+00   0.00000000000000E+00   0.00000000000000E+00   0.00000000000000E+00  -1.59161621529905E-16
     -4.62099285060744E-20  -1.59207831458411E-16   6.49605483853870E-16   4.37259618992322E-02   4.37259618992322E-02
      0.00000000000000E+00   0.00000000000000E+00   1.51166935092093E-16   2.18673914511511E-20   1.51188802483544E-16
      8.74144635618349E-16  -5.00000000000000E-01  -5.00000000000000E-01   0.00000000000000E+00   0.00000000000000E+00
      0.00000000000000E+00   0.00000000000000E+00   0.00000000000000E+00  -3.36186965004793E-16
      5.28748081204222E-02
      0.00000000000000E+00   0.00000000000000E+00   0.00000000000000E+00   0.00000000000000E+00  -1.89927803230147E-16
     -5.79909158039692E-20  -1.89985794145950E-16   6.48173393976681E-16   5.28748081204222E-02   5.28748081204222E-02
      0.00000000000000E+00   0.00000000000000E+00   1.82208184454793E-16   2.49556982053947E-20   1.82233140152998E-16
      8.77755720749828E-16  -5.00000000000000E-01  -5.00000000000000E-01   0.00000000000000E+00   0.00000000000000E+00
      0.00000000000000E+00   0.00000000000000E+00   0.00000000000000E+00  -3.40702715094540E-16
      6.37314389695677E-02
      0.00000000000000E+00   0.00000000000000E+00   0.00000000000000E+00   0.00000000000000E+00  -2.23191633931253E-16
     -7.25182489294458E-20  -2.23264152180183E-16   6.46632495951594E-16   6.37314389695677E-02   6.37314389695677E-02
      0.00000000000000E+00   0.00000000000000E+00   2.19682536284256E-16   2.79857824792040E-20   2.19710522066735E-16
      8.82209490954933E-16  -5.00000000000000E-01  -5.00000000000000E-01   0.00000000000000E+00   0.00000000000000E+00
      0.00000000000000E+00   0.00000000000000E+00   0.00000000000000E+00  -3.45678864124094E-16
      7.64698858325651E-02
      0.00000000000000E+00   0.00000000000000E+00   0.00000000000000E+00   0.00000000000000E+00  -2.63813632696679E-16
     -9.00484073603785E-20  -2.63903681104040E-16   6.45022969296150E-16   7.64698858325651E-02   7.64698858325651E-02
      0.00000000000000E+00   0.00000000000000E+00   2.65296289628888E-16   3.07576193225306E-20   2.65327047248210E-16
      8.87645558054889E-16  -5.00000000000000E-01  -5.00000000000000E-01   0.00000000000000E+00   0.00000000000000E+00
      0.00000000000000E+00   0.00000000000000E+00   0.00000000000000E+00  -3.51038748852063E-16
      9.14163301518153E-02
      0.00000000000000E+00   0.00000000000000E+00   0.00000000000000E+00   0.00000000000000E+00  -3.09120593813712E-16
     -1.10922931376820E-19  -3.09231516745089E-16   6.43372066857068E-16   9.14163301518153E-02   9.14163301518153E-02
      0.00000000000000E+00   0.00000000000000E+00   3.08932413754118E-16   3.31162637126656E-20   3.08965530017831E-16
      8.94274433201374E-16  -5.00000000000000E-01  -5.00000000000000E-01   0.00000000000000E+00   0.00000000000000E+00
      0.00000000000000E+00   0.00000000000000E+00   0.00000000000000E+00  -3.56754755281453E-16
      1.08953491486402E-01
      0.00000000000000E+00   0.00000000000000E+00   0.00000000000000E+00   0.00000000000000E+00  -3.59590253664563E-16
     -1.35405520051675E-19  -3.59725659184615E-16   6.41708142752503E-16   1.08953491486402E-01   1.08953491486402E-01
      0.00000000000000E+00   0.00000000000000E+00   3.58495646900796E-16   3.49555252903830E-20   3.58530602426087E-16
      9.02338404671002E-16  -5.00000000000000E-01  -5.00000000000000E-01   0.00000000000000E+00   0.00000000000000E+00
      0.00000000000000E+00   0.00000000000000E+00   0.00000000000000E+00  -3.62803592372074E-16
      1.29530427452318E-01
      0.00000000000000E+00   0.00000000000000E+00   0.00000000000000E+00   0.00000000000000E+00  -4.15603869362110E-16
     -1.63625952730193E-19  -4.15767495314840E-16   6.40059532741920E-16   1.29530427452318E-01   1.29530427452318E-01
      0.00000000000000E+00   0.00000000000000E+00   4.09870034321186E-16   3.62532956459906E-20   4.09906287616832E-16
      9.12115295822820E-16  -5.00000000000000E-01  -5.00000000000000E-01   0.00000000000000E+00   0.00000000000000E+00
      0.00000000000000E+00   0.00000000000000E+00   0.00000000000000E+00  -3.69170471182706E-16
      1.53674032318992E-01
      0.00000000000000E+00   0.00000000000000E+00   0.00000000000000E+00   0.00000000000000E+00  -4.65302983447402E-16
     -1.95442376733841E-19  -4.65498425824136E-16   6.38457149475915E-16   1.53674032318992E-01   1.53674032318992E-01
      0.00000000000000E+00   0.00000000000000E+00   4.69800245834916E-16   3.70782574820674E-20   4.69837324092398E-16
      9.23926843666033E-16  -5.00000000000000E-01  -5.00000000000000E-01   0.00000000000000E+00   0.00000000000000E+00
      0.00000000000000E+00   0.00000000000000E+00   0.00000000000000E+00  -3.75844765938854E-16
      1.82002528695889E-01
      0.00000000000000E+00   0.00000000000000E+00   0.00000000000000E+00   0.00000000000000E+00  -5.28547424007807E-16
     -2.30219814975808E-19  -5.28777643822783E-16   6.36937997582855E-16   1.82002528695889E-01   1.82002528695889E-01
      0.00000000000000E+00   0.00000000000000E+00   5.23808001151355E-16   3.75603423169123E-20   5.23845561493672E-16
      9.38148737248656E-16  -5.00000000000000E-01  -5.00000000000000E-01   0.00000000000000E+00   0.00000000000000E+00
      0.00000000000000E+00   0.00000000000000E+00   0.00000000000000E+00  -3.82814089540193E-16
      2.15241297778115E-01
      0.00000000000000E+00   0.00000000000000E+00   0.00000000000000E+00   0.00000000000000E+00  -5.80789111930265E-16
     -2.66682670125245E-19  -5.81055794600390E-16   6.35543197195892E-16   2.15241297778115E-01   2.15241297778115E-01
      0.00000000000000E+00   0.00000000000000E+00   5.82251920518991E-16   3.78414907253531E-20   5.82289762009716E-16
      9.55215595530692E-16  -5.00000000000000E-01  -5.00000000000000E-01   0.00000000000000E+00   0.00000000000000E+00
      0.00000000000000E+00   0.00000000000000E+00   0.00000000000000E+00  -3.90072456916627E-16
      2.54241453501261E-01
      0.00000000000000E+00   0.00000000000000E+00   0.00000000000000E+00   0.00000000000000E+00  -6.35047647843821E-16
     -3.02905736772938E-19  -6.35350553580594E-16   6.34313541823691E-16   2.54241453501261E-01   2.54241453501261E-01
      0.00000000000000E+00   0.00000000000000E+00   6.41257033923989E-16   3.80344542408249E-20   6.41295068378230E-16
      9.75624149855224E-16  -5.00000000000000E-01  -5.00000000000000E-01   0.00000000000000E+00   0.00000000000000E+00
      0.00000000000000E+00   0.00000000000000E+00   0.00000000000000E+00  -3.97635669408842E-16
      3.00001636216419E-01
      0.00000000000000E+00   0.00000000000000E+00   0.00000000000000E+00   0.00000000000000E+00  -6.88244043781796E-16
     -3.36137871426139E-19  -6.88580181653222E-16   6.33295003016178E-16   3.00001636216419E-01   3.00001636216419E-01
      0.00000000000000E+00   0.00000000000000E+00   6.85082401946744E-16   3.82070107942171E-20   6.85120608957538E-16
      9.99947292993460E-16  -5.00000000000000E-01  -5.00000000000000E-01   0.00000000000000E+00   0.00000000000000E+00
      0.00000000000000E+00   0.00000000000000E+00   0.00000000000000E+00  -4.05535048334237E-16
      3.53083448166001E-01
      0.00000000000000E+00   0.00000000000000E+00   0.00000000000000E+00   0.00000000000000E+00  -7.20306225544209E-16
     -3.63223985326012E-19  -7.20669449529535E-16   6.32529414471294E-16   3.53083448166001E-01   3.53083448166001E-01
      0.00000000000000E+00   0.00000000000000E+00   7.17453211288557E-16   3.83878244234458E-20   7.17491599112980E-16
      1.02849522186246E-15  -5.00000000000000E-01  -5.00000000000000E-01   0.00000000000000E+00   0.00000000000000E+00
      0.00000000000000E+00   0.00000000000000E+00   0.00000000000000E+00  -4.13774895752447E-16
      4.14658350027517E-01
      0.00000000000000E+00   0.00000000000000E+00   0.00000000000000E+00   0.00000000000000E+00  -7.54267029013380E-16
     -3.84200112354459E-19  -7.54651229125734E-16   6.31971056642710E-16   4.14658350027517E-01   4.14658350027517E-01
      0.00000000000000E+00   0.00000000000000E+00   7.50075598467662E-16   3.85864318878791E-20   7.50114184899550E-16
      1.06180520385725E-15  -5.00000000000000E-01  -5.00000000000000E-01   0.00000000000000E+00   0.00000000000000E+00
      0.00000000000000E+00   0.00000000000000E+00   0.00000000000000E+00  -4.22662109727773E-16
      4.86906234878363E-01
      0.00000000000000E+00   0.00000000000000E+00   0.00000000000000E+00   0.00000000000000E+00  -7.75314392933904E-16
     -4.01453710709935E-19  -7.75715846644614E-16   6.31532046128992E-16   4.86906234878363E-01   4.86906234878363E-01
      0.00000000000000E+00   0.00000000000000E+00   7.76227892933338E-16   3.88067897430714E-20   7.76266699723081E-16
      1.10089438222641E-15  -5.00000000000000E-01  -5.00000000000000E-01   0.00000000000000E+00   0.00000000000000E+00
      0.00000000000000E+00   0.00000000000000E+00   0.00000000000000E+00  -4.32760071452173E-16
      5.70713781305344E-01
      0.00000000000000E+00   0.00000000000000E+00   0.00000000000000E+00   0.00000000000000E+00  -7.94168265867318E-16
     -4.14120335517582E-19  -7.94582386202835E-16   6.31220414527287E-16   5.70713781305344E-01   5.70713781305344E-01
      0.00000000000000E+00   0.00000000000000E+00   7.89850131395840E-16   3.90464800864991E-20   7.89889177875926E-16
      1.14612225996114E-15  -5.00000000000000E-01  -5.00000000000000E-01   0.00000000000000E+00   0.00000000000000E+00
      0.00000000000000E+00   0.00000000000000E+00   0.00000000000000E+00  -4.44289810093440E-16
      6.67930535160641E-01
      0.00000000000000E+00   0.00000000000000E+00   0.00000000000000E+00   0.00000000000000E+00  -8.10525119738442E-16
     -4.25302171376133E-19  -8.10950421909818E-16   6.30952323241383E-16   6.67930535160641E-01   6.67930535160641E-01
      0.00000000000000E+00   0.00000000000000E+00   8.03346114334245E-16   3.93036977514509E-20   8.03385418031996E-16
      1.19823101200773E-15  -5.00000000000000E-01  -5.00000000000000E-01   0.00000000000000E+00   0.00000000000000E+00
      0.00000000000000E+00   0.00000000000000E+00   0.00000000000000E+00  -4.57836385046308E-16
      7.79405746248049E-01
      0.00000000000000E+00   0.00000000000000E+00   0.00000000000000E+00   0.00000000000000E+00  -8.21035900416152E-16
     -4.35576507577333E-19  -8.21471476923730E-16   6.30711447347838E-16   7.79405746248049E-01   7.79405746248049E-01
      0.00000000000000E+00   0.00000000000000E+00   8.14151416674619E-16   3.95730434561896E-20   8.14190989718075E-16
      1.25743639065896E-15  -5.00000000000000E-01  -5.00000000000000E-01   0.00000000000000E+00   0.00000000000000E+00
      0.00000000000000E+00   0.00000000000000E+00   0.00000000000000E+00  -4.73666976888311E-16
      9.05744318813778E-01
      0.00000000000000E+00   0.00000000000000E+00   0.00000000000000E+00   0.00000000000000E+00  -8.27905696780083E-16
     -4.42222889405301E-19  -8.28347919669488E-16   6.30558024873211E-16   9.05744318813778E-01   9.05744318813778E-01
      0.00000000000000E+00   0.00000000000000E+00   8.26698560763221E-16   3.98484540097201E-20   8.26738409217231E-16
      1.32382095182296E-15  -5.00000000000000E-01  -5.00000000000000E-01   0.00000000000000E+00   0.00000000000000E+00
      0.00000000000000E+00   0.00000000000000E+00   0.00000000000000E+00  -4.91729990961076E-16
      1.00000000000000E+00
      0.00000000000000E+00   0.00000000000000E+00   0.00000000000000E+00   0.00000000000000E+00  -8.31174012472214E-16
     -4.45257332816929E-19  -8.31619269805031E-16   6.30488402200241E-16   1.00000000000000E+00   1.00000000000000E+00
      0.00000000000000E+00   0.00000000000000E+00   8.35888953749633E-16   4.00343889049776E-20   8.35928988138538E-16
      1.37271925798245E-15  -5.00000000000000E-01  -5.00000000000000E-01   0.00000000000000E+00   0.00000000000000E+00
      0.00000000000000E+00   0.00000000000000E+00   0.00000000000000E+00  -5.05244161582206E-16
      0.00000000000000E+00
      0.00000000000000E+00   0.00000000000000E+00   0.00000000000000E+00   0.00000000000000E+00  -8.31173878012738E-16
     -4.45257175226420E-19  -8.31619135187964E-16   6.30488405773899E-16   1.00000000000000E+00   1.00000000000000E+00
      0.00000000000000E+00   0.00000000000000E+00   8.27086037800139E-16   4.00343889209767E-20   8.27126072189060E-16
      1.37271926114648E-15  -5.00000000000000E-01  -5.00000000000000E-01   0.00000000000000E+00   0.00000000000000E+00
      0.00000000000000E+00   0.00000000000000E+00   0.00000000000000E+00  -5.05244153762083E-16
      1.00000000000000E-03
      0.00000000000000E+00   0.00000000000000E+00   0.00000000000000E+00   0.00000000000000E+00  -8.33774370782235E-16
     -4.45175631045144E-19  -8.34219546413281E-16   6.30464595557897E-16   1.00000000000000E+00   1.00000000000000E+00
      0.00000000000000E+00   0.00000000000000E+00   8.28185380854721E-16   4.00343947618495E-20   8.28225415249482E-16
      1.37243674256116E-15  -4.98000000000000E-01  -4.98000000000000E-01   0.00000000000000E+00   0.00000000000000E+00
      0.00000000000000E+00   0.00000000000000E+00   0.00000000000000E+00  -5.03086913014850E-16
      2.17333333333333E-03
      0.00000000000000E+00   0.00000000000000E+00   0.00000000000000E+00   0.00000000000000E+00  -8.31071683029849E-16
     -4.45079051475325E-19  -8.31516762081324E-16   6.30436571245665E-16   1.00000000000000E+00   1.00000000000000E+00
      0.00000000000000E+00   0.00000000000000E+00   8.29284540764837E-16   4.00344017059102E-20   8.29324575166543E-16
      1.37210513120056E-15  -4.95653333333333E-01  -4.95653333333333E-01   0.00000000000000E+00   0.00000000000000E+00
      0.00000000000000E+00   0.00000000000000E+00   0.00000000000000E+00  -5.00556414971701E-16
      3.58133333333333E-03
      0.00000000000000E+00   0.00000000000000E+00   0.00000000000000E+00   0.00000000000000E+00  -8.32592975181788E-16
     -4.44962367574030E-19  -8.33037937549362E-16   6.30402805369750E-16   1.00000000000000E+00   1.00000000000000E+00
      0.00000000000000E+00   0.00000000000000E+00   8.28549507250775E-16   4.00344101179250E-20   8.28589541660893E-16
      1.37170701610830E-15  -4.92837333333333E-01  -4.92837333333333E-01   0.00000000000000E+00   0.00000000000000E+00
      0.00000000000000E+00   0.00000000000000E+00   0.00000000000000E+00  -4.97520787366946E-16
      5.27093333333333E-03
      0.00000000000000E+00   0.00000000000000E+00   0.00000000000000E+00   0.00000000000000E+00  -8.28276378414514E-16
     -4.44820738235415E-19  -8.28721199152749E-16   6.30362097647615E-16   1.00000000000000E+00   1.00000000000000E+00
      0.00000000000000E+00   0.00000000000000E+00   8.34416385020586E-16   4.00344203745886E-20   8.34456419440960E-16
      1.37122903225570E-15  -4.89458133333333E-01  -4.89458133333333E-01   0.00000000000000E+00   0.00000000000000E+00
      0.00000000000000E+00   0.00000000000000E+00   0.00000000000000E+00  -4.93879405639599E-16
      7.29845333333333E-03
      0.00000000000000E+00   0.00000000000000E+00   0.00000000000000E+00   0.00000000000000E+00  -8.32942773617652E-16
     -4.44649491535247E-19  -8.33387423109187E-16   6.30312948939511E-16   1.00000000000000E+00   1.00000000000000E+00
      0.00000000000000E+00   0.00000000000000E+00   8.37348594284529E-16   4.00344328124053E-20   8.37388628717341E-16
      1.37065508711185E-15  -4.85403093333333E-01  -4.85403093333333E-01   0.00000000000000E+00   0.00000000000000E+00
      0.00000000000000E+00   0.00000000000000E+00   0.00000000000000E+00  -4.89511771126544E-16
      9.70444373333333E-03
      0.00000000000000E+00   0.00000000000000E+00   0.00000000000000E+00   0.00000000000000E+00  -8.34941664087387E-16
     -4.44442344589126E-19  -8.35386106431976E-16   6.30254241999033E-16   1.00000000000000E+00   1.00000000000000E+00
      0.00000000000000E+00   0.00000000000000E+00   8.33311340440774E-16   4.00344479703343E-20   8.33351374888744E-16
      1.36997354785599E-15  -4.80591112533333E-01  -4.80591112533333E-01   0.00000000000000E+00   0.00000000000000E+00
      0.00000000000000E+00   0.00000000000000E+00   0.00000000000000E+00  -4.84331603694080E-16
      1.25595523413333E-02
      0.00000000000000E+00   0.00000000000000E+00   0.00000000000000E+00   0.00000000000000E+00  -8.34798174185450E-16
     -4.44191936658154E-19  -8.35242366122108E-16   6.30184001117205E-16   1.00000000000000E+00   1.00000000000000E+00
      0.00000000000000E+00   0.00000000000000E+00   8.36976189070339E-16   4.00344664235710E-20   8.37016223536762E-16
      1.36916414920632E-15  -4.74880895317333E-01  -4.74880895317333E-01   0.00000000000000E+00   0.00000000000000E+00
      0.00000000000000E+00   0.00000000000000E+00   0.00000000000000E+00  -4.78188407578915E-16
      1.59476145561600E-02
      0.00000000000000E+00   0.00000000000000E+00   0.00000000000000E+00   0.00000000000000E+00  -8.35683055844100E-16
     -4.43888096874080E-19  -8.36126943940974E-16   6.30099820426280E-16   1.00000000000000E+00   1.00000000000000E+00
      0.00000000000000E+00   0.00000000000000E+00   8.27802632532582E-16   4.00344890014576E-20   8.27842667021584E-16
      1.36820280575101E-15  -4.68104770887680E-01  -4.68104770887680E-01   0.00000000000000E+00   0.00000000000000E+00
      0.00000000000000E+00   0.00000000000000E+00   0.00000000000000E+00  -4.70904030086278E-16
      1.99681150510876E-02
      0.00000000000000E+00   0.00000000000000E+00   0.00000000000000E+00   0.00000000000000E+00  -8.37059790329865E-16
     -4.43517735846600E-19  -8.37503308065711E-16   6.29998728598576E-16   1.00000000000000E+00   1.00000000000000E+00
      0.00000000000000E+00   0.00000000000000E+00   8.32933230358643E-16   4.00345167934454E-20   8.32973264875437E-16
      1.36706086925666E-15  -4.60063769897825E-01  -4.60063769897825E-01   0.00000000000000E+00   0.00000000000000E+00
      0.00000000000000E+00   0.00000000000000E+00   0.00000000000000E+00  -4.62267744831577E-16
      2.47391089717351E-02
      0.00000000000000E+00   0.00000000000000E+00   0.00000000000000E+00   0.00000000000000E+00  -8.32036260945387E-16
     -4.43063851129250E-19  -8.32479324796517E-16   6.29877023708468E-16   1.00000000000000E+00   1.00000000000000E+00
      0.00000000000000E+00   0.00000000000000E+00   8.28892960350847E-16   4.00345512447966E-20   8.28932994902092E-16
      1.36570425743113E-15  -4.50521782056530E-01  -4.50521782056530E-01   0.00000000000000E+00   0.00000000000000E+00
      0.00000000000000E+00   0.00000000000000E+00   0.00000000000000E+00  -4.52030487239485E-16
      3.04006884242368E-02
      0.00000000000000E+00   0.00000000000000E+00   0.00000000000000E+00   0.00000000000000E+00  -8.35955029201614E-16
     -4.42503700302538E-19  -8.36397532901916E-16   6.29730053175394E-16   1.00000000000000E+00   1.00000000000000E+00
      0.00000000000000E+00   0.00000000000000E+00   8.38056151225187E-16   4.00345943371979E-20   8.38096185819524E-16
      1.36409242175684E-15  -4.39198623151526E-01  -4.39198623151526E-01   0.00000000000000E+00   0.00000000000000E+00
      0.00000000000000E+00   0.00000000000000E+00   0.00000000000000E+00  -4.39898163179952E-16
      3.71190960412054E-02
      0.00000000000000E+00   0.00000000000000E+00   0.00000000000000E+00   0.00000000000000E+00  -8.34509596151016E-16
     -4.41806631572974E-19  -8.34951402782589E-16   6.29551889342477E-16   1.00000000000000E+00   1.00000000000000E+00
      0.00000000000000E+00   0.00000000000000E+00   8.28511028681807E-16   4.00346488054202E-20   8.28551063330612E-16
      1.36217710384258E-15  -4.25761807917589E-01  -4.25761807917589E-01   0.00000000000000E+00   0.00000000000000E+00
      0.00000000000000E+00   0.00000000000000E+00   0.00000000000000E+00  -4.25524007487626E-16
      4.50916064133415E-02
      0.00000000000000E+00   0.00000000000000E+00   0.00000000000000E+00   0.00000000000000E+00  -8.36161086961494E-16
     -4.40929983413905E-19  -8.36602016944908E-16   6.29334873190439E-16   1.00000000000000E+00   1.00000000000000E+00
      0.00000000000000E+00   0.00000000000000E+00   8.27400198893286E-16   4.00347185542965E-20   8.27440233611840E-16
      1.35990085705208E-15  -4.09816787173317E-01  -4.09816787173317E-01   0.00000000000000E+00   0.00000000000000E+00
      0.00000000000000E+00   0.00000000000000E+00   0.00000000000000E+00  -4.08499949657043E-16
      5.45523187216097E-02
      0.00000000000000E+00   0.00000000000000E+00   0.00000000000000E+00   0.00000000000000E+00  -8.30810675468182E-16
     -4.39812565261177E-19  -8.31250488033443E-16   6.29068928687371E-16   1.00000000000000E+00   1.00000000000000E+00