DF-ISE text

Info {
  version   = 1.0
  type      = xyplot
  datasets  = [
    "time"
    "S OuterVoltage" "S InnerVoltage" "S QuasiFermiPotential" "S DisplacementCurrent" "S eCurrent"
    "S hCurrent" "S TotalCurrent" "S Charge" "D OuterVoltage" "D InnerVoltage"
    "D QuasiFermiPotential" "D DisplacementCurrent" "D eCurrent" "D hCurrent" "D TotalCurrent"
    "D Charge" "G OuterVoltage" "G InnerVoltage" "G QuasiFermiPotential" "G DisplacementCurrent"
    "G eCurrent" "G hCurrent" "G TotalCurrent" "G Charge" ]
  functions = [
    Time
    OuterVoltage InnerVoltage QuasiFermiPotential DisplacementCurrent eCurrent
    hCurrent TotalCurrent Charge OuterVoltage InnerVoltage
    QuasiFermiPotential DisplacementCurrent eCurrent hCurrent TotalCurrent
    Charge OuterVoltage InnerVoltage QuasiFermiPotential DisplacementCurrent
    eCurrent hCurrent TotalCurrent Charge ]
}

Data {
      0.00000000000000E+00
      0.00000000000000E+00   0.00000000000000E+00   0.00000000000000E+00   0.00000000000000E+00  -4.98468829517081E-26
     -7.85124997308427E-34  -4.98468837368331E-26   6.44195759695721E-16   0.00000000000000E+00   0.00000000000000E+00
      0.00000000000000E+00   0.00000000000000E+00   3.83720550932421E-37  -7.87580542519738E-34  -7.87196821968805E-34
      8.25971452773070E-16  -5.00000000000000E-01  -5.00000000000000E-01   0.00000000000000E+00   0.00000000000000E+00
      0.00000000000000E+00   0.00000000000000E+00   0.00000000000000E+00  -3.61631449030364E-16
      0.00000000000000E+00
      0.00000000000000E+00   0.00000000000000E+00   0.00000000000000E+00   0.00000000000000E+00  -2.05659320241162E-18
     -1.89464846418247E-34  -2.05659320241162E-18   6.44195759695719E-16   0.00000000000000E+00   0.00000000000000E+00
      0.00000000000000E+00   0.00000000000000E+00   3.07280134688093E-18  -1.51123846454663E-34   3.07280134688093E-18
      8.25971452773060E-16  -5.00000000000000E-01  -5.00000000000000E-01   0.00000000000000E+00   0.00000000000000E+00
      0.00000000000000E+00   0.00000000000000E+00   0.00000000000000E+00  -3.61631449030371E-16
      1.00000000000000E-03
      0.00000000000000E+00   0.00000000000000E+00   0.00000000000000E+00   0.00000000000000E+00  -1.55689370983581E-18
     -7.15459859120230E-22  -1.55760916969493E-18   6.44009766748065E-16   1.00000000000000E-03   1.00000000000000E-03
      0.00000000000000E+00   0.00000000000000E+00   3.10169016191481E-18   7.21924146229595E-22   3.10241208606103E-18
      8.26322767246328E-16  -5.00000000000000E-01  -5.00000000000000E-01   0.00000000000000E+00   0.00000000000000E+00
      0.00000000000000E+00   0.00000000000000E+00   0.00000000000000E+00  -3.62167162953043E-16
      2.17333333333333E-03
      0.00000000000000E+00   0.00000000000000E+00   0.00000000000000E+00   0.00000000000000E+00  -6.89632896351306E-18
     -1.56353625169032E-21  -6.89789249976475E-18   6.43793747582656E-16   2.17333333333333E-03   2.17333333333333E-03
      0.00000000000000E+00   0.00000000000000E+00   5.87142435032901E-18   1.55949202381027E-21   5.87298384235282E-18
      8.26737331571188E-16  -5.00000000000000E-01  -5.00000000000000E-01   0.00000000000000E+00   0.00000000000000E+00
      0.00000000000000E+00   0.00000000000000E+00   0.00000000000000E+00  -3.62791253336805E-16
      3.56568888888889E-03
      0.00000000000000E+00   0.00000000000000E+00   0.00000000000000E+00   0.00000000000000E+00  -1.34966093290002E-17
     -2.58169877588740E-21  -1.34991910277761E-17   6.43540503232263E-16   3.56568888888889E-03   3.56568888888889E-03
      0.00000000000000E+00   0.00000000000000E+00   1.24500932982409E-17   2.53987501711944E-21   1.24526331732580E-17
      8.27232578600557E-16  -5.00000000000000E-01  -5.00000000000000E-01   0.00000000000000E+00   0.00000000000000E+00
      0.00000000000000E+00   0.00000000000000E+00   0.00000000000000E+00  -3.63525558866294E-16
      5.21795081481481E-03
      0.00000000000000E+00   0.00000000000000E+00   0.00000000000000E+00   0.00000000000000E+00  -1.21372806341826E-17
     -3.80603155491007E-21  -1.21410866657375E-17   6.43244345270573E-16   5.21795081481481E-03   5.21795081481481E-03
      0.00000000000000E+00   0.00000000000000E+00   1.92934613013920E-17   3.68383616460691E-21   1.92971451375566E-17
      8.27824908680245E-16  -5.00000000000000E-01  -5.00000000000000E-01   0.00000000000000E+00   0.00000000000000E+00
      0.00000000000000E+00   0.00000000000000E+00   0.00000000000000E+00  -3.64388086331730E-16
      7.17863496691358E-03
      0.00000000000000E+00   0.00000000000000E+00   0.00000000000000E+00   0.00000000000000E+00  -1.83069534968688E-17
     -5.28077308336998E-21  -1.83122342699522E-17   6.42899030756837E-16   7.17863496691358E-03   7.17863496691358E-03
      0.00000000000000E+00   0.00000000000000E+00   2.23577483526699E-17   5.01340412345684E-21   2.23627617567933E-17
      8.28534321687460E-16  -5.00000000000000E-01  -5.00000000000000E-01   0.00000000000000E+00   0.00000000000000E+00
      0.00000000000000E+00   0.00000000000000E+00   0.00000000000000E+00  -3.65399163529990E-16
      9.50531349407078E-03
      0.00000000000000E+00   0.00000000000000E+00   0.00000000000000E+00   0.00000000000000E+00  -3.20741141107942E-17
     -7.06015950746813E-21  -3.20811742703017E-17   6.42497856006120E-16   9.50531349407078E-03   9.50531349407078E-03
      0.00000000000000E+00   0.00000000000000E+00   2.47689189393791E-17   6.55095239561882E-21   2.47754698917747E-17
      8.29385297433032E-16  -5.00000000000000E-01  -5.00000000000000E-01   0.00000000000000E+00   0.00000000000000E+00
      0.00000000000000E+00   0.00000000000000E+00   0.00000000000000E+00  -3.66581463969460E-16
      1.22663053462973E-02
      0.00000000000000E+00   0.00000000000000E+00   0.00000000000000E+00   0.00000000000000E+00  -3.96020746355112E-17
     -9.21055481352507E-21  -3.96112851903247E-17   6.42033837581625E-16   1.22663053462973E-02   1.22663053462973E-02
      0.00000000000000E+00   0.00000000000000E+00   3.47624312923333E-17   8.31762266800766E-21   3.47707489150013E-17
      8.30407913525352E-16  -5.00000000000000E-01  -5.00000000000000E-01   0.00000000000000E+00   0.00000000000000E+00
      0.00000000000000E+00   0.00000000000000E+00   0.00000000000000E+00  -3.67959889614375E-16
      1.55426823442728E-02
      0.00000000000000E+00   0.00000000000000E+00   0.00000000000000E+00   0.00000000000000E+00  -4.30226980109867E-17
     -1.18127529836901E-20  -4.30345107639704E-17   6.41500017542822E-16   1.55426823442728E-02   1.55426823442728E-02
      0.00000000000000E+00   0.00000000000000E+00   4.47365210273519E-17   1.03308240082913E-20   4.47468518513602E-17
      8.31639266350661E-16  -5.00000000000000E-01  -5.00000000000000E-01   0.00000000000000E+00   0.00000000000000E+00
      0.00000000000000E+00   0.00000000000000E+00   0.00000000000000E+00  -3.69561240418454E-16
      1.94306497152037E-02
      0.00000000000000E+00   0.00000000000000E+00   0.00000000000000E+00   0.00000000000000E+00  -5.58342646723396E-17
     -1.49642178714034E-20  -5.58492288902110E-17   6.40889925436623E-16   1.94306497152037E-02   1.94306497152037E-02
      0.00000000000000E+00   0.00000000000000E+00   5.37462391493534E-17   1.26004746212786E-20   5.37588396239747E-17
      8.33125260488044E-16  -5.00000000000000E-01  -5.00000000000000E-01   0.00000000000000E+00   0.00000000000000E+00
      0.00000000000000E+00   0.00000000000000E+00   0.00000000000000E+00  -3.71413609213560E-16
      2.40443709953751E-02
      0.00000000000000E+00   0.00000000000000E+00   0.00000000000000E+00   0.00000000000000E+00  -7.35045153008750E-17
     -1.87807478439633E-20  -7.35232960487190E-17   6.40198230450279E-16   2.40443709953751E-02   2.40443709953751E-02
      0.00000000000000E+00   0.00000000000000E+00   7.20573303179981E-17   1.51237189118737E-20   7.20724540369100E-17
      8.34922837891775E-16  -5.00000000000000E-01  -5.00000000000000E-01   0.00000000000000E+00   0.00000000000000E+00
      0.00000000000000E+00   0.00000000000000E+00   0.00000000000000E+00  -3.73545439129147E-16
      2.95193202478451E-02
      0.00000000000000E+00   0.00000000000000E+00   0.00000000000000E+00   0.00000000000000E+00  -8.32221492572249E-17
     -2.33966847387034E-20  -8.32455459419637E-17   6.39421594564002E-16   2.95193202478451E-02   2.95193202478451E-02
      0.00000000000000E+00   0.00000000000000E+00   8.49657095230640E-17   1.78780981057098E-20   8.49835876211697E-17
      8.37102699877456E-16  -5.00000000000000E-01  -5.00000000000000E-01   0.00000000000000E+00   0.00000000000000E+00
      0.00000000000000E+00   0.00000000000000E+00   0.00000000000000E+00  -3.75984228967972E-16
      3.60162600274429E-02
      0.00000000000000E+00   0.00000000000000E+00   0.00000000000000E+00   0.00000000000000E+00  -1.06838450351737E-16
     -2.89625571065143E-20  -1.06867412908844E-16   6.38559656523516E-16   3.60162600274429E-02   3.60162600274429E-02
      0.00000000000000E+00   0.00000000000000E+00   1.04719368457547E-16   2.08137359962601E-20   1.04740182193544E-16
      8.39752495570939E-16  -5.00000000000000E-01  -5.00000000000000E-01   0.00000000000000E+00   0.00000000000000E+00
      0.00000000000000E+00   0.00000000000000E+00   0.00000000000000E+00  -3.78755044006773E-16
      4.37259618992322E-02
      0.00000000000000E+00   0.00000000000000E+00   0.00000000000000E+00   0.00000000000000E+00  -1.21587209106362E-16
     -3.56389045747573E-20  -1.21622848010937E-16   6.37615988918656E-16   4.37259618992322E-02   4.37259618992322E-02
      0.00000000000000E+00   0.00000000000000E+00   1.24818779538001E-16   2.38463915123440E-20   1.24842625929513E-16
      8.42980365245550E-16  -5.00000000000000E-01  -5.00000000000000E-01   0.00000000000000E+00   0.00000000000000E+00
      0.00000000000000E+00   0.00000000000000E+00   0.00000000000000E+00  -3.81879179120664E-16
      5.28748081204222E-02
      0.00000000000000E+00   0.00000000000000E+00   0.00000000000000E+00   0.00000000000000E+00  -1.43723394491922E-16
     -4.35862991223645E-20  -1.43766980791044E-16   6.36598664457258E-16   5.28748081204222E-02   5.28748081204222E-02
      0.00000000000000E+00   0.00000000000000E+00   1.48733695259729E-16   2.68549650718156E-20   1.48760550224801E-16
      8.46918518494348E-16  -5.00000000000000E-01  -5.00000000000000E-01   0.00000000000000E+00   0.00000000000000E+00
      0.00000000000000E+00   0.00000000000000E+00   0.00000000000000E+00  -3.85373763940189E-16
      6.37314389695677E-02
      0.00000000000000E+00   0.00000000000000E+00   0.00000000000000E+00   0.00000000000000E+00  -1.71568675645333E-16
     -5.29538864624120E-20  -1.71621629531796E-16   6.35519986882852E-16   6.37314389695677E-02   6.37314389695677E-02
      0.00000000000000E+00   0.00000000000000E+00   1.72005063913502E-16   2.96888414825744E-20   1.72034752754985E-16
      8.51726455054660E-16  -5.00000000000000E-01  -5.00000000000000E-01   0.00000000000000E+00   0.00000000000000E+00
      0.00000000000000E+00   0.00000000000000E+00   0.00000000000000E+00  -3.89253285525935E-16
      7.66146409105537E-02
      0.00000000000000E+00   0.00000000000000E+00   0.00000000000000E+00   0.00000000000000E+00  -2.00093958163270E-16
     -6.38738228940842E-20  -2.00157831986164E-16   6.34394878398062E-16   7.66146409105537E-02   7.66146409105537E-02
      0.00000000000000E+00   0.00000000000000E+00   2.01051724867560E-16   3.21898126089729E-20   2.01083914680169E-16
      8.57593388157035E-16  -5.00000000000000E-01  -5.00000000000000E-01   0.00000000000000E+00   0.00000000000000E+00
      0.00000000000000E+00   0.00000000000000E+00   0.00000000000000E+00  -3.93534153407926E-16
      9.17309311879772E-02
      0.00000000000000E+00   0.00000000000000E+00   0.00000000000000E+00   0.00000000000000E+00  -2.32256338475367E-16
     -7.63300064139948E-20  -2.32332668481781E-16   6.33250212104039E-16   9.17309311879772E-02   9.17309311879772E-02
      0.00000000000000E+00   0.00000000000000E+00   2.32193077070289E-16   3.42096747429903E-20   2.32227286745032E-16
      8.64658964187000E-16  -5.00000000000000E-01  -5.00000000000000E-01   0.00000000000000E+00   0.00000000000000E+00
      0.00000000000000E+00   0.00000000000000E+00   0.00000000000000E+00  -3.98190951753764E-16
      1.09467378446821E-01
      0.00000000000000E+00   0.00000000000000E+00   0.00000000000000E+00   0.00000000000000E+00  -2.65956593615655E-16
     -9.04267829699221E-20  -2.66047020398625E-16   6.32096344714504E-16   1.09467378446821E-01   1.09467378446821E-01
      0.00000000000000E+00   0.00000000000000E+00   2.62423519689273E-16   3.57041129128101E-20   2.62459223802186E-16
      8.73143324561996E-16  -5.00000000000000E-01  -5.00000000000000E-01   0.00000000000000E+00   0.00000000000000E+00
      0.00000000000000E+00   0.00000000000000E+00   0.00000000000000E+00  -4.03259950918769E-16
      1.30278143230531E-01
      0.00000000000000E+00   0.00000000000000E+00   0.00000000000000E+00   0.00000000000000E+00  -3.00688649505806E-16
     -1.06299369200305E-19  -3.00794948875006E-16   6.30939656205912E-16   1.30278143230531E-01   1.30278143230531E-01
      0.00000000000000E+00   0.00000000000000E+00   2.99659357685689E-16   3.67096273133505E-20   2.99696067313002E-16
      8.83297838437255E-16  -5.00000000000000E-01  -5.00000000000000E-01   0.00000000000000E+00   0.00000000000000E+00
      0.00000000000000E+00   0.00000000000000E+00   0.00000000000000E+00  -4.08796076718755E-16
      1.54696107243417E-01
      0.00000000000000E+00   0.00000000000000E+00   0.00000000000000E+00   0.00000000000000E+00  -3.37003458662053E-16
     -1.24106044257939E-19  -3.37127564706311E-16   6.29784323327381E-16   1.54696107243417E-01   1.54696107243417E-01
      0.00000000000000E+00   0.00000000000000E+00   3.32510278641728E-16   3.73283533628161E-20   3.32547606995091E-16
      8.95412866798303E-16  -5.00000000000000E-01  -5.00000000000000E-01   0.00000000000000E+00   0.00000000000000E+00
      0.00000000000000E+00   0.00000000000000E+00   0.00000000000000E+00  -4.14871055025102E-16
      1.83346518351870E-01
      0.00000000000000E+00   0.00000000000000E+00   0.00000000000000E+00   0.00000000000000E+00  -3.75425161796612E-16
     -1.43976092143984E-19  -3.75569137888756E-16   6.28635862547268E-16   1.83346518351870E-01   1.83346518351870E-01
      0.00000000000000E+00   0.00000000000000E+00   3.79271035087244E-16   3.76907346919398E-20   3.79308725821936E-16
      9.09828307429533E-16  -5.00000000000000E-01  -5.00000000000000E-01   0.00000000000000E+00   0.00000000000000E+00
      0.00000000000000E+00   0.00000000000000E+00   0.00000000000000E+00  -4.21568097902395E-16
      2.16963000719122E-01
      0.00000000000000E+00   0.00000000000000E+00   0.00000000000000E+00   0.00000000000000E+00  -4.14224062796462E-16
     -1.65829487995729E-19  -4.14389892284458E-16   6.27508895237407E-16   2.16963000719122E-01   2.16963000719122E-01
      0.00000000000000E+00   0.00000000000000E+00   4.15790091544194E-16   3.79159400130712E-20   4.15828007484207E-16
      9.26949544693417E-16  -5.00000000000000E-01  -5.00000000000000E-01   0.00000000000000E+00   0.00000000000000E+00
      0.00000000000000E+00   0.00000000000000E+00   0.00000000000000E+00  -4.28968039323153E-16
      2.56406340030030E-01
      0.00000000000000E+00   0.00000000000000E+00   0.00000000000000E+00   0.00000000000000E+00  -4.61184145996721E-16
     -1.88930141389701E-19  -4.61373076138111E-16   6.26441483730794E-16   2.56406340030030E-01   2.56406340030030E-01
      0.00000000000000E+00   0.00000000000000E+00   4.62928277788529E-16   3.80882686370010E-20   4.62966366057166E-16
      9.47271223489976E-16  -5.00000000000000E-01  -5.00000000000000E-01   0.00000000000000E+00   0.00000000000000E+00
      0.00000000000000E+00   0.00000000000000E+00   0.00000000000000E+00  -4.37122130566496E-16
      3.02686524821497E-01
      0.00000000000000E+00   0.00000000000000E+00   0.00000000000000E+00   0.00000000000000E+00  -4.97304730680946E-16
     -2.11629683051262E-19  -4.97516360363998E-16   6.25493050420023E-16   3.02686524821497E-01   3.02686524821497E-01
      0.00000000000000E+00   0.00000000000000E+00   4.92505667957009E-16   3.82545982790838E-20   4.92543922555288E-16
      9.71385187164154E-16  -5.00000000000000E-01  -5.00000000000000E-01   0.00000000000000E+00   0.00000000000000E+00
      0.00000000000000E+00   0.00000000000000E+00   0.00000000000000E+00  -4.46059895809842E-16
      3.56988608310150E-01
      0.00000000000000E+00   0.00000000000000E+00   0.00000000000000E+00   0.00000000000000E+00  -5.31105931512764E-16
     -2.32430020035735E-19  -5.31338361532800E-16   6.24696348925338E-16   3.56988608310150E-01   3.56988608310150E-01
      0.00000000000000E+00   0.00000000000000E+00   5.28557578752061E-16   3.84351635142601E-20   5.28596013915575E-16
      9.99943006748548E-16  -5.00000000000000E-01  -5.00000000000000E-01   0.00000000000000E+00   0.00000000000000E+00
      0.00000000000000E+00   0.00000000000000E+00   0.00000000000000E+00  -4.55893731989146E-16
      4.19979025156988E-01
      0.00000000000000E+00   0.00000000000000E+00   0.00000000000000E+00   0.00000000000000E+00  -5.60035629684080E-16
     -2.51211467667888E-19  -5.60286841151748E-16   6.24027531817381E-16   4.19979025156988E-01   4.19979025156988E-01
      0.00000000000000E+00   0.00000000000000E+00   5.61726578333827E-16   3.86340973680892E-20   5.61765212431195E-16
      1.03324874799948E-15  -5.00000000000000E-01  -5.00000000000000E-01   0.00000000000000E+00   0.00000000000000E+00
      0.00000000000000E+00   0.00000000000000E+00   0.00000000000000E+00  -4.66776226746452E-16
      4.93047908699321E-01
      0.00000000000000E+00   0.00000000000000E+00   0.00000000000000E+00   0.00000000000000E+00  -5.87375489788264E-16
     -2.67167311261750E-19  -5.87642657099526E-16   6.23492213522824E-16   4.93047908699321E-01   4.93047908699321E-01
      0.00000000000000E+00   0.00000000000000E+00   5.94009046221441E-16   3.88527714328083E-20   5.94047898992873E-16
      1.07201293872042E-15  -5.00000000000000E-01  -5.00000000000000E-01   0.00000000000000E+00   0.00000000000000E+00
      0.00000000000000E+00   0.00000000000000E+00   0.00000000000000E+00  -4.78906177020455E-16
      5.77807813608426E-01
      0.00000000000000E+00   0.00000000000000E+00   0.00000000000000E+00   0.00000000000000E+00  -6.00671888990748E-16
     -2.77945079875588E-19  -6.00949834070624E-16   6.23145775368660E-16   5.77807813608426E-01   5.77807813608426E-01
      0.00000000000000E+00   0.00000000000000E+00   5.97696877473244E-16   3.90913042021505E-20   5.97735968777446E-16
      1.11709084322076E-15  -5.00000000000000E-01  -5.00000000000000E-01   0.00000000000000E+00   0.00000000000000E+00
      0.00000000000000E+00   0.00000000000000E+00   0.00000000000000E+00  -4.92413924559495E-16
      6.76129303302988E-01
      0.00000000000000E+00   0.00000000000000E+00   0.00000000000000E+00   0.00000000000000E+00  -6.11590472500965E-16
     -2.85945663898816E-19  -6.11876418164863E-16   6.22895696608561E-16   6.76129303302988E-01   6.76129303302988E-01
      0.00000000000000E+00   0.00000000000000E+00   6.21005953795217E-16   3.93475280836275E-20   6.21045301323300E-16
      1.16928326085316E-15  -5.00000000000000E-01  -5.00000000000000E-01   0.00000000000000E+00   0.00000000000000E+00
      0.00000000000000E+00   0.00000000000000E+00   0.00000000000000E+00  -5.07778515719347E-16
      7.90182231348681E-01
      0.00000000000000E+00   0.00000000000000E+00   0.00000000000000E+00   0.00000000000000E+00  -6.20637920665149E-16
     -2.91890922181230E-19  -6.20929811587330E-16   6.22713242298982E-16   7.90182231348681E-01   7.90182231348681E-01
      0.00000000000000E+00   0.00000000000000E+00   6.27240515583538E-16   3.96188198127223E-20   6.27280134403350E-16
      1.22953116031533E-15  -5.00000000000000E-01  -5.00000000000000E-01   0.00000000000000E+00   0.00000000000000E+00
      0.00000000000000E+00   0.00000000000000E+00   0.00000000000000E+00  -5.25396259510521E-16
      9.19442216467132E-01
      0.00000000000000E+00   0.00000000000000E+00   0.00000000000000E+00   0.00000000000000E+00  -6.32727161650149E-16
     -2.96005364125195E-19  -6.33023167014274E-16   6.22588086027996E-16   9.19442216467132E-01   9.19442216467132E-01
      0.00000000000000E+00   0.00000000000000E+00   6.35141885962887E-16   3.98952813808526E-20   6.35181781244268E-16
      1.29720661088189E-15  -5.00000000000000E-01  -5.00000000000000E-01   0.00000000000000E+00   0.00000000000000E+00
      0.00000000000000E+00   0.00000000000000E+00   0.00000000000000E+00  -5.45226538842093E-16
      1.00000000000000E+00
      0.00000000000000E+00   0.00000000000000E+00   0.00000000000000E+00   0.00000000000000E+00  -6.30210589479855E-16
     -2.97870282943469E-19  -6.30508459762798E-16   6.22531442321368E-16   1.00000000000000E+00   1.00000000000000E+00
      0.00000000000000E+00   0.00000000000000E+00   6.32871656802038E-16   4.00517272097022E-20   6.32911708529248E-16
      1.33889227699558E-15  -5.00000000000000E-01  -5.00000000000000E-01   0.00000000000000E+00   0.00000000000000E+00
      0.00000000000000E+00   0.00000000000000E+00   0.00000000000000E+00  -5.57563721839673E-16
      0.00000000000000E+00
      0.00000000000000E+00   0.00000000000000E+00   0.00000000000000E+00   0.00000000000000E+00  -6.32846977516428E-16
     -2.97870229743723E-19  -6.33144847746172E-16   6.22531443899660E-16   1.00000000000000E+00   1.00000000000000E+00
      0.00000000000000E+00   0.00000000000000E+00   6.31407877160811E-16   4.00517272174051E-20   6.31447928888028E-16
      1.33889227849292E-15  -5.00000000000000E-01  -5.00000000000000E-01   0.00000000000000E+00   0.00000000000000E+00
      0.00000000000000E+00   0.00000000000000E+00   0.00000000000000E+00  -5.57563718655999E-16
      1.00000000000000E-03
      0.00000000000000E+00   0.00000000000000E+00   0.00000000000000E+00   0.00000000000000E+00  -6.37496424573979E-16
     -2.97724510644396E-19  -6.37794149084623E-16   6.22462693740935E-16   1.00000000000000E+00   1.00000000000000E+00
      0.00000000000000E+00   0.00000000000000E+00   6.38358593746172E-16   4.00517454272089E-20   6.38398645491599E-16
      1.33859277626318E-15  -4.98000000000000E-01  -4.98000000000000E-01   0.00000000000000E+00   0.00000000000000E+00
      0.00000000000000E+00   0.00000000000000E+00   0.00000000000000E+00  -5.55634759743321E-16
      2.17333333333333E-03
      0.00000000000000E+00   0.00000000000000E+00   0.00000000000000E+00   0.00000000000000E+00  -6.36854742576468E-16
     -2.97551671035887E-19  -6.37152294247504E-16   6.22381817462606E-16   1.00000000000000E+00   1.00000000000000E+00
      0.00000000000000E+00   0.00000000000000E+00   6.27743574331050E-16   4.00517670667174E-20   6.27783626098116E-16
      1.33824112659260E-15  -4.95653333333333E-01  -4.95653333333333E-01   0.00000000000000E+00   0.00000000000000E+00
      0.00000000000000E+00   0.00000000000000E+00   0.00000000000000E+00  -5.53374440687043E-16
      3.56568888888889E-03
      0.00000000000000E+00   0.00000000000000E+00   0.00000000000000E+00   0.00000000000000E+00  -6.30917369068869E-16
     -2.97343832198231E-19  -6.31214712901068E-16   6.22285557600944E-16   1.00000000000000E+00   1.00000000000000E+00
      0.00000000000000E+00   0.00000000000000E+00   6.32497690814116E-16   4.00517931472917E-20   6.32537742607263E-16
      1.33782350604536E-15  -4.92868622222222E-01  -4.92868622222222E-01   0.00000000000000E+00   0.00000000000000E+00
      0.00000000000000E+00   0.00000000000000E+00   0.00000000000000E+00  -5.50696435479347E-16
      5.21795081481481E-03
      0.00000000000000E+00   0.00000000000000E+00   0.00000000000000E+00   0.00000000000000E+00  -6.32333831681660E-16
     -2.97093339061614E-19  -6.32630925020722E-16   6.22170930466236E-16   1.00000000000000E+00   1.00000000000000E+00
      0.00000000000000E+00   0.00000000000000E+00   6.33591730140911E-16   4.00518246633867E-20   6.33631781965575E-16
      1.33732745599658E-15  -4.89564098370370E-01  -4.89564098370370E-01   0.00000000000000E+00   0.00000000000000E+00
      0.00000000000000E+00   0.00000000000000E+00   0.00000000000000E+00  -5.47524599835468E-16
      7.17863496691358E-03
      0.00000000000000E+00   0.00000000000000E+00   0.00000000000000E+00   0.00000000000000E+00  -6.36879502311886E-16
     -2.96790596762933E-19  -6.37176292908648E-16   6.22034354145632E-16   1.00000000000000E+00   1.00000000000000E+00
      0.00000000000000E+00   0.00000000000000E+00   6.33221223893113E-16   4.00518628708388E-20   6.33261275755984E-16
      1.33673812833244E-15  -4.85642730066173E-01  -4.85642730066173E-01   0.00000000000000E+00   0.00000000000000E+00
      0.00000000000000E+00   0.00000000000000E+00   0.00000000000000E+00  -5.43769382935753E-16
      9.50531349407078E-03
      0.00000000000000E+00   0.00000000000000E+00   0.00000000000000E+00   0.00000000000000E+00  -6.34001095985125E-16
     -2.96423511160665E-19  -6.34297519496286E-16   6.21871521292094E-16   1.00000000000000E+00   1.00000000000000E+00
      0.00000000000000E+00   0.00000000000000E+00   6.34679489291229E-16   4.00519093653894E-20   6.34719541200594E-16
      1.33603780853242E-15  -4.80989373011858E-01  -4.80989373011858E-01   0.00000000000000E+00   0.00000000000000E+00
      0.00000000000000E+00   0.00000000000000E+00   0.00000000000000E+00  -5.39325701967170E-16
      1.22663053462973E-02
      0.00000000000000E+00   0.00000000000000E+00   0.00000000000000E+00   0.00000000000000E+00  -6.36342980231211E-16
     -2.95976707883546E-19  -6.36638956939094E-16   6.21677243634948E-16   1.00000000000000E+00   1.00000000000000E+00
      0.00000000000000E+00   0.00000000000000E+00   6.35770649780375E-16   4.00519661936239E-20   6.35810701746569E-16
      1.33520533521250E-15  -4.75467389307405E-01  -4.75467389307405E-01   0.00000000000000E+00   0.00000000000000E+00
      0.00000000000000E+00   0.00000000000000E+00   0.00000000000000E+00  -5.34070605732289E-16
      1.55426823442728E-02
      0.00000000000000E+00   0.00000000000000E+00   0.00000000000000E+00   0.00000000000000E+00  -6.30183893398179E-16
     -2.95430461020017E-19  -6.30479323859199E-16   6.21445260559956E-16   1.00000000000000E+00   1.00000000000000E+00
      0.00000000000000E+00   0.00000000000000E+00   6.37958194814084E-16   4.00520360069939E-20   6.37998246850091E-16
      1.33421538849639E-15  -4.68914635311454E-01  -4.68914635311454E-01   0.00000000000000E+00   0.00000000000000E+00
      0.00000000000000E+00   0.00000000000000E+00   0.00000000000000E+00  -5.27860789707218E-16
      1.94306497152037E-02
      0.00000000000000E+00   0.00000000000000E+00   0.00000000000000E+00   0.00000000000000E+00  -6.31852041735926E-16
     -2.94759236013188E-19  -6.32146800971939E-16   6.21168001365917E-16   1.00000000000000E+00   1.00000000000000E+00
      0.00000000000000E+00   0.00000000000000E+00   6.35386729642218E-16   4.00521222740598E-20   6.35426781764492E-16
      1.33303761037535E-15  -4.61138700569592E-01  -4.61138700569592E-01   0.00000000000000E+00   0.00000000000000E+00
      0.00000000000000E+00   0.00000000000000E+00   0.00000000000000E+00  -5.20530095207670E-16
      2.40443709953751E-02
      0.00000000000000E+00   0.00000000000000E+00   0.00000000000000E+00   0.00000000000000E+00  -6.33944426673642E-16
     -2.93929580971154E-19  -6.34238356254613E-16   6.20836290179686E-16   1.00000000000000E+00   1.00000000000000E+00
      0.00000000000000E+00   0.00000000000000E+00   6.32813051005467E-16   4.00522295921455E-20   6.32853103235059E-16
      1.33163551175639E-15  -4.51911258009250E-01  -4.51911258009250E-01   0.00000000000000E+00   0.00000000000000E+00
      0.00000000000000E+00   0.00000000000000E+00   0.00000000000000E+00  -5.11887235139386E-16
      2.95193202478451E-02
      0.00000000000000E+00   0.00000000000000E+00   0.00000000000000E+00   0.00000000000000E+00  -6.34324166610867E-16
     -2.92897332211231E-19  -6.34617063943078E-16   6.20438965684443E-16   1.00000000000000E+00   1.00000000000000E+00
      0.00000000000000E+00   0.00000000000000E+00   6.35725596002132E-16   4.00523641081806E-20   6.35765648366241E-16
      1.32996509839901E-15  -4.40961359504310E-01  -4.40961359504310E-01   0.00000000000000E+00   0.00000000000000E+00
      0.00000000000000E+00   0.00000000000000E+00   0.00000000000000E+00  -5.01714195285769E-16
      3.60162600274429E-02
      0.00000000000000E+00   0.00000000000000E+00   0.00000000000000E+00   0.00000000000000E+00  -6.30852177076732E-16
     -2.91603350443658E-19  -6.31143780427176E-16   6.19962391390463E-16   1.00000000000000E+00   1.00000000000000E+00
      0.00000000000000E+00   0.00000000000000E+00   6.36072947738808E-16   4.00525341729348E-20   6.36113000272981E-16
      1.32797315516618E-15  -4.27967479945114E-01  -4.27967479945114E-01   0.00000000000000E+00   0.00000000000000E+00
      0.00000000000000E+00   0.00000000000000E+00   0.00000000000000E+00  -4.89766013709867E-16
      4.37259618992322E-02
      0.00000000000000E+00   0.00000000000000E+00   0.00000000000000E+00   0.00000000000000E+00  -6.32456940961594E-16
     -2.89968088070080E-19  -6.32746909049664E-16   6.19389762823528E-16   1.00000000000000E+00   1.00000000000000E+00
      0.00000000000000E+00   0.00000000000000E+00   6.32024485926005E-16   4.00527512037787E-20   6.32064538677209E-16
      1.32559510123042E-15  -4.12548076201536E-01  -4.12548076201536E-01   0.00000000000000E+00   0.00000000000000E+00
      0.00000000000000E+00   0.00000000000000E+00   0.00000000000000E+00  -4.75773134641917E-16
      5.28748081204222E-02
      0.00000000000000E+00   0.00000000000000E+00   0.00000000000000E+00   0.00000000000000E+00  -6.32592899771673E-16
     -2.87884240596812E-19  -6.32880784012269E-16   6.18700073038139E-16   1.00000000000000E+00   1.00000000000000E+00