DF-ISE text

Info {
  version   = 1.0
  type      = xyplot
  datasets  = [
    "time"
    "S OuterVoltage" "S InnerVoltage" "S QuasiFermiPotential" "S DisplacementCurrent" "S eCurrent"
    "S hCurrent" "S TotalCurrent" "S Charge" "D OuterVoltage" "D InnerVoltage"
    "D QuasiFermiPotential" "D DisplacementCurrent" "D eCurrent" "D hCurrent" "D TotalCurrent"
    "D Charge" "G OuterVoltage" "G InnerVoltage" "G QuasiFermiPotential" "G DisplacementCurrent"
    "G eCurrent" "G hCurrent" "G TotalCurrent" "G Charge" ]
  functions = [
    Time
    OuterVoltage InnerVoltage QuasiFermiPotential DisplacementCurrent eCurrent
    hCurrent TotalCurrent Charge OuterVoltage InnerVoltage
    QuasiFermiPotential DisplacementCurrent eCurrent hCurrent TotalCurrent
    Charge OuterVoltage InnerVoltage QuasiFermiPotential DisplacementCurrent
    eCurrent hCurrent TotalCurrent Charge ]
}

Data {
      0.00000000000000E+00
      0.00000000000000E+00   0.00000000000000E+00   0.00000000000000E+00   0.00000000000000E+00   1.69571299934998E-25
      2.69292053315815E-34   1.69571300204290E-25   3.75700356951386E-16   0.00000000000000E+00   0.00000000000000E+00
      0.00000000000000E+00   0.00000000000000E+00   6.87875647448216E-25   2.82799672950054E-34   6.87875647731016E-25
      5.26398793349753E-16  -5.00000000000000E-01  -5.00000000000000E-01   0.00000000000000E+00   0.00000000000000E+00
      0.00000000000000E+00   0.00000000000000E+00   0.00000000000000E+00  -4.21813363847591E-16
      0.00000000000000E+00
      0.00000000000000E+00   0.00000000000000E+00   0.00000000000000E+00   0.00000000000000E+00  -2.32249148070653E-18
      8.51059674053192E-32  -2.32249148070645E-18   3.75700356941860E-16   0.00000000000000E+00   0.00000000000000E+00
      0.00000000000000E+00   0.00000000000000E+00   6.37567894431258E-18   8.53913516223049E-32   6.37567894431267E-18
      5.26398793339734E-16  -5.00000000000000E-01  -5.00000000000000E-01   0.00000000000000E+00   0.00000000000000E+00
      0.00000000000000E+00   0.00000000000000E+00   0.00000000000000E+00  -4.21813363850112E-16
      1.00000000000000E-03
      0.00000000000000E+00   0.00000000000000E+00   0.00000000000000E+00   0.00000000000000E+00   6.89977343774339E-18
     -4.97980281242405E-22   6.89927545746215E-18   3.75657059157303E-16   1.00000000000000E-03   1.00000000000000E-03
      0.00000000000000E+00   0.00000000000000E+00   5.93860851596056E-18   1.10416463561217E-21   5.93971268059618E-18
      5.26668040045202E-16  -5.00000000000000E-01  -5.00000000000000E-01   0.00000000000000E+00   0.00000000000000E+00
      0.00000000000000E+00   0.00000000000000E+00   0.00000000000000E+00  -4.22201031475162E-16
      2.17333333333333E-03
      0.00000000000000E+00   0.00000000000000E+00   0.00000000000000E+00   0.00000000000000E+00  -7.28054313112190E-19
     -1.07966069892727E-21  -7.29133973811118E-19   3.75606975604381E-16   2.17333333333333E-03   2.17333333333333E-03
      0.00000000000000E+00   0.00000000000000E+00   6.68312170884367E-18   2.37207754102088E-21   6.68549378638469E-18
      5.26984632744309E-16  -5.00000000000000E-01  -5.00000000000000E-01   0.00000000000000E+00   0.00000000000000E+00
      0.00000000000000E+00   0.00000000000000E+00   0.00000000000000E+00  -4.22651839388602E-16
      3.56568888888889E-03
      0.00000000000000E+00   0.00000000000000E+00   0.00000000000000E+00   0.00000000000000E+00  -8.37081523746654E-18
     -1.76600918567818E-21  -8.37258124665221E-18   3.75548538408692E-16   3.56568888888889E-03   3.56568888888889E-03
      0.00000000000000E+00   0.00000000000000E+00   1.08286828693889E-18   3.83815184660870E-21   1.08670643878550E-18
      5.27361255084963E-16  -5.00000000000000E-01  -5.00000000000000E-01   0.00000000000000E+00   0.00000000000000E+00
      0.00000000000000E+00   0.00000000000000E+00   0.00000000000000E+00  -4.23181187519734E-16
      5.21795081481481E-03
      0.00000000000000E+00   0.00000000000000E+00   0.00000000000000E+00   0.00000000000000E+00  -1.51066909676715E-18
     -2.57457528036114E-21  -1.51324367204751E-18   3.75480573545956E-16   5.21795081481481E-03   5.21795081481481E-03
      0.00000000000000E+00   0.00000000000000E+00   5.94187557931572E-18   5.52406759581401E-21   5.94739964691154E-18
      5.27809467009227E-16  -5.00000000000000E-01  -5.00000000000000E-01   0.00000000000000E+00   0.00000000000000E+00
      0.00000000000000E+00   0.00000000000000E+00   0.00000000000000E+00  -4.23801567246085E-16
      7.17863496691358E-03
      0.00000000000000E+00   0.00000000000000E+00   0.00000000000000E+00   0.00000000000000E+00  -9.18908772216670E-18
     -3.52514991249607E-21  -9.19261287207920E-18   3.75401829989800E-16   7.17863496691358E-03   7.17863496691358E-03
      0.00000000000000E+00   0.00000000000000E+00   8.51813299593519E-18   7.44970670719682E-21   8.52558270264239E-18
      5.28343112725212E-16  -5.00000000000000E-01  -5.00000000000000E-01   0.00000000000000E+00   0.00000000000000E+00
      0.00000000000000E+00   0.00000000000000E+00   0.00000000000000E+00  -4.24527002528130E-16
      9.50531349407078E-03
      0.00000000000000E+00   0.00000000000000E+00   0.00000000000000E+00   0.00000000000000E+00  -4.23992900293694E-20
     -4.63964675714880E-21  -4.70389367865182E-20   3.75311012761670E-16   9.50531349407078E-03   9.50531349407078E-03
      0.00000000000000E+00   0.00000000000000E+00   4.76589470682540E-18   9.63081445329565E-21   4.77552552127870E-18
      5.28978786371106E-16  -5.00000000000000E-01  -5.00000000000000E-01   0.00000000000000E+00   0.00000000000000E+00
      0.00000000000000E+00   0.00000000000000E+00   0.00000000000000E+00  -4.25373069696337E-16
      1.22663053462973E-02
      0.00000000000000E+00   0.00000000000000E+00   0.00000000000000E+00   0.00000000000000E+00   3.85447511630063E-18
     -5.94172376521182E-21   3.84853339253541E-18   3.75206832574521E-16   1.22663053462973E-02   1.22663053462973E-02
      0.00000000000000E+00   0.00000000000000E+00   8.00259178300587E-18   1.20757298471553E-20   8.01466751285303E-18
      5.29736390929945E-16  -5.00000000000000E-01  -5.00000000000000E-01   0.00000000000000E+00   0.00000000000000E+00
      0.00000000000000E+00   0.00000000000000E+00   0.00000000000000E+00  -4.26356861999482E-16
      1.55426823442728E-02
      0.00000000000000E+00   0.00000000000000E+00   0.00000000000000E+00   0.00000000000000E+00   3.07817340246904E-18
     -7.45596769699163E-21   3.07071743477205E-18   3.75088077239218E-16   1.55426823442728E-02   1.55426823442728E-02
      0.00000000000000E+00   0.00000000000000E+00   3.76559441017707E-18   1.47811115741591E-20   3.78037552175123E-18
      5.30639807906007E-16  -5.00000000000000E-01  -5.00000000000000E-01   0.00000000000000E+00   0.00000000000000E+00
      0.00000000000000E+00   0.00000000000000E+00   0.00000000000000E+00  -4.27496876533785E-16
      1.94306497152037E-02
      0.00000000000000E+00   0.00000000000000E+00   0.00000000000000E+00   0.00000000000000E+00  -5.09852610299394E-20
     -9.20653203469028E-21  -6.01917930646297E-20   3.74953700766626E-16   1.94306497152037E-02   1.94306497152037E-02
      0.00000000000000E+00   0.00000000000000E+00  -9.96412865326245E-19   1.77267121429736E-20  -9.78686153183272E-19
      5.31717687901509E-16  -5.00000000000000E-01  -5.00000000000000E-01   0.00000000000000E+00   0.00000000000000E+00
      0.00000000000000E+00   0.00000000000000E+00   0.00000000000000E+00  -4.28812852672167E-16
      2.40443709953751E-02
      0.00000000000000E+00   0.00000000000000E+00   0.00000000000000E+00   0.00000000000000E+00  -1.42587163056182E-17
     -1.12150464296751E-20  -1.42699313520479E-17   3.74802926138564E-16   2.40443709953751E-02   2.40443709953751E-02
      0.00000000000000E+00   0.00000000000000E+00   1.33503877327880E-17   2.08697036921904E-20   1.33712574364802E-17
      5.33004374130831E-16  -5.00000000000000E-01  -5.00000000000000E-01   0.00000000000000E+00   0.00000000000000E+00
      0.00000000000000E+00   0.00000000000000E+00   0.00000000000000E+00  -4.30325591001339E-16
      2.95193202478451E-02
      0.00000000000000E+00   0.00000000000000E+00   0.00000000000000E+00   0.00000000000000E+00  -1.45493276489637E-17
     -1.34977677347287E-20  -1.45628254166984E-17   3.74635343901556E-16   2.95193202478451E-02   2.95193202478451E-02
      0.00000000000000E+00   0.00000000000000E+00   2.90524087253251E-18   2.41396609900475E-20   2.92938053352256E-18
      5.34540959868029E-16  -5.00000000000000E-01  -5.00000000000000E-01   0.00000000000000E+00   0.00000000000000E+00
      0.00000000000000E+00   0.00000000000000E+00   0.00000000000000E+00  -4.32056857181948E-16
      3.60162600274429E-02
      0.00000000000000E+00   0.00000000000000E+00   0.00000000000000E+00   0.00000000000000E+00  -1.89410931495743E-17
     -1.60623465411726E-20  -1.89571554961155E-17   3.74450965759439E-16   3.60162600274429E-02   3.60162600274429E-02
      0.00000000000000E+00   0.00000000000000E+00   1.72978017882911E-17   2.74361377173270E-20   1.73252379260084E-17
      5.36376462211596E-16  -5.00000000000000E-01  -5.00000000000000E-01   0.00000000000000E+00   0.00000000000000E+00
      0.00000000000000E+00   0.00000000000000E+00   0.00000000000000E+00  -4.34029599437351E-16
      4.37259618992322E-02
      0.00000000000000E+00   0.00000000000000E+00   0.00000000000000E+00   0.00000000000000E+00  -1.63680072487239E-17
     -1.89049320369195E-20  -1.63869121807608E-17   3.74250184225867E-16   4.37259618992322E-02   4.37259618992322E-02
      0.00000000000000E+00   0.00000000000000E+00   2.24751313194356E-17   3.06316854644068E-20   2.25057630049000E-17
      5.38569092259967E-16  -5.00000000000000E-01  -5.00000000000000E-01   0.00000000000000E+00   0.00000000000000E+00
      0.00000000000000E+00   0.00000000000000E+00   0.00000000000000E+00  -4.36268748831605E-16
      5.28748081204222E-02
      0.00000000000000E+00   0.00000000000000E+00   0.00000000000000E+00   0.00000000000000E+00  -8.58546804696487E-18
     -2.20090590415862E-20  -8.60747710600646E-18   3.74033572877993E-16   5.28748081204222E-02   5.28748081204222E-02
      0.00000000000000E+00   0.00000000000000E+00   1.15416936796181E-17   3.35832266311194E-20   1.15752769062492E-17
      5.41187594409317E-16  -5.00000000000000E-01  -5.00000000000000E-01   0.00000000000000E+00   0.00000000000000E+00
      0.00000000000000E+00   0.00000000000000E+00   0.00000000000000E+00  -4.38802956379591E-16
      6.36094543532852E-02
      0.00000000000000E+00   0.00000000000000E+00   0.00000000000000E+00   0.00000000000000E+00  -1.01311908403989E-17
     -2.53129189263659E-20  -1.01565037593253E-17   3.73803936101330E-16   6.36094543532852E-02   6.36094543532852E-02
      0.00000000000000E+00   0.00000000000000E+00   2.12735201427480E-17   3.61288087484608E-20   2.13096489514965E-17
      5.44277436727321E-16  -5.00000000000000E-01  -5.00000000000000E-01   0.00000000000000E+00   0.00000000000000E+00
      0.00000000000000E+00   0.00000000000000E+00   0.00000000000000E+00  -4.41636195320473E-16
      7.62047725998443E-02
      0.00000000000000E+00   0.00000000000000E+00   0.00000000000000E+00   0.00000000000000E+00  -9.94198290605616E-18
     -2.87888483016056E-20  -9.97077175435776E-18   3.73560787413855E-16   7.62047725998443E-02   7.62047725998443E-02
      0.00000000000000E+00   0.00000000000000E+00   1.66177653320365E-17   3.81828916885148E-20   1.66559482237250E-17
      5.47919575096680E-16  -5.00000000000000E-01  -5.00000000000000E-01   0.00000000000000E+00   0.00000000000000E+00
      0.00000000000000E+00   0.00000000000000E+00   0.00000000000000E+00  -4.44808326551190E-16
      9.09832793424738E-02
      0.00000000000000E+00   0.00000000000000E+00   0.00000000000000E+00   0.00000000000000E+00  -1.26751743002274E-17
     -3.24217458454505E-20  -1.27075960460729E-17   3.73302084734959E-16   9.09832793424738E-02   9.09832793424738E-02
      0.00000000000000E+00   0.00000000000000E+00   1.82218564260886E-17   3.97157446125105E-20   1.82615721707011E-17
      5.52206905076454E-16  -5.00000000000000E-01  -5.00000000000000E-01   0.00000000000000E+00   0.00000000000000E+00
      0.00000000000000E+00   0.00000000000000E+00   0.00000000000000E+00  -4.48373142896147E-16
      1.08323393920492E-01
      0.00000000000000E+00   0.00000000000000E+00   0.00000000000000E+00   0.00000000000000E+00  -2.94115237958576E-17
     -3.62246557879468E-20  -2.94477484516456E-17   3.73023525058371E-16   1.08323393920492E-01   1.08323393920492E-01
      0.00000000000000E+00   0.00000000000000E+00   3.11692021105549E-17   4.07608157064881E-20   3.12099629262614E-17
      5.57245846664375E-16  -5.00000000000000E-01  -5.00000000000000E-01   0.00000000000000E+00   0.00000000000000E+00
      0.00000000000000E+00   0.00000000000000E+00   0.00000000000000E+00  -4.52402715446973E-16
      1.28669128358701E-01
      0.00000000000000E+00   0.00000000000000E+00   0.00000000000000E+00   0.00000000000000E+00  -1.87682628116149E-17
     -4.02642591403140E-20  -1.88085270707553E-17   3.72717547101293E-16   1.28669128358701E-01   1.28669128358701E-01
      0.00000000000000E+00   0.00000000000000E+00   2.75740445450856E-17   4.14048365358568E-20   2.76154493816215E-17
      5.63158090841665E-16  -5.00000000000000E-01  -5.00000000000000E-01   0.00000000000000E+00   0.00000000000000E+00
      0.00000000000000E+00   0.00000000000000E+00   0.00000000000000E+00  -4.56993280013484E-16
      1.52541456766199E-01
      0.00000000000000E+00   0.00000000000000E+00   0.00000000000000E+00   0.00000000000000E+00  -2.21534801421871E-17
     -4.47204554101567E-20  -2.21982005975973E-17   3.72371261915536E-16   1.52541456766199E-01   1.52541456766199E-01
      0.00000000000000E+00   0.00000000000000E+00   2.63369391772723E-17   4.17631982854121E-20   2.63787023755577E-17
      5.70081944120977E-16  -5.00000000000000E-01  -5.00000000000000E-01   0.00000000000000E+00   0.00000000000000E+00
      0.00000000000000E+00   0.00000000000000E+00   0.00000000000000E+00  -4.62276958611856E-16
      1.80551655430996E-01
      0.00000000000000E+00   0.00000000000000E+00   0.00000000000000E+00   0.00000000000000E+00  -2.62020658002763E-17
     -5.00220996341782E-20  -2.62520878999105E-17   3.71962412771537E-16   1.80551655430996E-01   1.80551655430996E-01
      0.00000000000000E+00   0.00000000000000E+00   3.49265237126353E-17   4.19492123216771E-20   3.49684729249569E-17
      5.78172733761157E-16  -5.00000000000000E-01  -5.00000000000000E-01   0.00000000000000E+00   0.00000000000000E+00
      0.00000000000000E+00   0.00000000000000E+00   0.00000000000000E+00  -4.68444411867980E-16
      2.13416955197692E-01
      0.00000000000000E+00   0.00000000000000E+00   0.00000000000000E+00   0.00000000000000E+00  -3.15833538871882E-17
     -5.70628165854545E-20  -3.16404167037737E-17   3.71454840229190E-16   2.13416955197692E-01   2.13416955197692E-01
      0.00000000000000E+00   0.00000000000000E+00   4.12865470282314E-17   4.20500829325990E-20   4.13285971111640E-17
      5.87603896309701E-16  -5.00000000000000E-01  -5.00000000000000E-01   0.00000000000000E+00   0.00000000000000E+00
      0.00000000000000E+00   0.00000000000000E+00   0.00000000000000E+00  -4.75770549618746E-16
      2.51540702927059E-01
      0.00000000000000E+00   0.00000000000000E+00   0.00000000000000E+00   0.00000000000000E+00  -4.01502830070389E-17
     -6.69696361910292E-20  -4.02172526432299E-17   3.70815268855799E-16   2.51540702927059E-01   2.51540702927059E-01
      0.00000000000000E+00   0.00000000000000E+00   3.64658582459347E-17   4.21186467497824E-20   3.65079768926844E-17
      5.98456275112676E-16  -5.00000000000000E-01  -5.00000000000000E-01   0.00000000000000E+00   0.00000000000000E+00
      0.00000000000000E+00   0.00000000000000E+00   0.00000000000000E+00  -4.84462725148793E-16
      2.96272566929516E-01
      0.00000000000000E+00   0.00000000000000E+00   0.00000000000000E+00   0.00000000000000E+00  -6.01025026339160E-17
     -7.98888547862984E-20  -6.01823914887023E-17   3.70036190494813E-16   2.96272566929516E-01   2.96272566929516E-01
      0.00000000000000E+00   0.00000000000000E+00   6.18055701157863E-17   4.21827307163790E-20   6.18477528465027E-17
      6.11111777175108E-16  -5.00000000000000E-01  -5.00000000000000E-01   0.00000000000000E+00   0.00000000000000E+00
      0.00000000000000E+00   0.00000000000000E+00   0.00000000000000E+00  -4.94694649536135E-16
      3.48161529172367E-01
      0.00000000000000E+00   0.00000000000000E+00   0.00000000000000E+00   0.00000000000000E+00  -6.72528318561526E-17
     -9.39221869735448E-20  -6.73467540431262E-17   3.69156226310198E-16   3.48161529172367E-01   3.48161529172367E-01
      0.00000000000000E+00   0.00000000000000E+00   7.64547070640585E-17   4.22533943391815E-20   7.64969604583977E-17
      6.25744612212077E-16  -5.00000000000000E-01  -5.00000000000000E-01   0.00000000000000E+00   0.00000000000000E+00
      0.00000000000000E+00   0.00000000000000E+00   0.00000000000000E+00  -5.06241707054675E-16
      4.08352725374074E-01
      0.00000000000000E+00   0.00000000000000E+00   0.00000000000000E+00   0.00000000000000E+00  -7.37979391777863E-17
     -1.07935006153549E-19  -7.39058741839399E-17   3.68160287982657E-16   4.08352725374074E-01   4.08352725374074E-01
      0.00000000000000E+00   0.00000000000000E+00   8.78357318737150E-17   4.23381058645339E-20   8.78780699795795E-17
      6.42657598672828E-16  -5.00000000000000E-01  -5.00000000000000E-01   0.00000000000000E+00   0.00000000000000E+00
      0.00000000000000E+00   0.00000000000000E+00   0.00000000000000E+00  -5.19213160148265E-16
      4.78174512968053E-01
      0.00000000000000E+00   0.00000000000000E+00   0.00000000000000E+00   0.00000000000000E+00  -8.87165702165921E-17
     -1.23413208249158E-19  -8.88399834248412E-17   3.66962298968247E-16   4.78174512968053E-01   4.78174512968053E-01
      0.00000000000000E+00   0.00000000000000E+00   9.52923322789801E-17   4.24452380861500E-20   9.53347775170663E-17
      6.62151605640254E-16  -5.00000000000000E-01  -5.00000000000000E-01   0.00000000000000E+00   0.00000000000000E+00
      0.00000000000000E+00   0.00000000000000E+00   0.00000000000000E+00  -5.34089322738267E-16
      5.59167786577070E-01
      0.00000000000000E+00   0.00000000000000E+00   0.00000000000000E+00   0.00000000000000E+00  -1.30585558772312E-16
     -1.42529350105202E-19  -1.30728088122417E-16   3.65461847251071E-16   5.59167786577070E-01   5.59167786577070E-01
      0.00000000000000E+00   0.00000000000000E+00   1.38630299926675E-16   4.25629075600642E-20   1.38672862834235E-16
      6.84579294900725E-16  -5.00000000000000E-01  -5.00000000000000E-01   0.00000000000000E+00   0.00000000000000E+00
      0.00000000000000E+00   0.00000000000000E+00   0.00000000000000E+00  -5.51397250982178E-16
      6.53119983963529E-01
      0.00000000000000E+00   0.00000000000000E+00   0.00000000000000E+00   0.00000000000000E+00  -2.01919568818812E-16
     -1.61894268131827E-19  -2.02081463086943E-16   3.63626901386325E-16   6.53119983963529E-01   6.53119983963529E-01
      0.00000000000000E+00   0.00000000000000E+00   2.11245222160524E-16   4.26926444995714E-20   2.11287914805023E-16
      7.10411190922083E-16  -5.00000000000000E-01  -5.00000000000000E-01   0.00000000000000E+00   0.00000000000000E+00
      0.00000000000000E+00   0.00000000000000E+00   0.00000000000000E+00  -5.71201514038330E-16
      7.62104532931821E-01
      0.00000000000000E+00   0.00000000000000E+00   0.00000000000000E+00   0.00000000000000E+00  -3.64626901488802E-16
     -1.78667453316919E-19  -3.64805568942119E-16   3.61387977029215E-16   7.62104532931821E-01   7.62104532931821E-01
      0.00000000000000E+00   0.00000000000000E+00   3.77981109306273E-16   4.28369619737020E-20   3.78023946268247E-16
      7.40166938609769E-16  -5.00000000000000E-01  -5.00000000000000E-01   0.00000000000000E+00   0.00000000000000E+00
      0.00000000000000E+00   0.00000000000000E+00   0.00000000000000E+00  -5.93812328015253E-16
      8.87073482415463E-01
      0.00000000000000E+00   0.00000000000000E+00   0.00000000000000E+00   0.00000000000000E+00  -8.32713962997426E-16
     -1.94541337093186E-19  -8.32908504334519E-16   3.58677322900230E-16   8.87073482415463E-01   8.87073482415463E-01
      0.00000000000000E+00   0.00000000000000E+00   8.40538442593578E-16   4.29958248646055E-20   8.40581438418443E-16
      7.74034025138061E-16  -5.00000000000000E-01  -5.00000000000000E-01   0.00000000000000E+00   0.00000000000000E+00
      0.00000000000000E+00   0.00000000000000E+00   0.00000000000000E+00  -6.19668601081000E-16
      1.00000000000000E+00
      0.00000000000000E+00   0.00000000000000E+00   0.00000000000000E+00   0.00000000000000E+00  -1.85721899437180E-15
     -2.10213890426705E-19  -1.85742920826223E-15   3.56124136048433E-16   1.00000000000000E+00   1.00000000000000E+00
      0.00000000000000E+00   0.00000000000000E+00   1.84624320361296E-15   4.31344050096506E-20   1.84628633801797E-15
      8.04432789250490E-16  -5.00000000000000E-01  -5.00000000000000E-01   0.00000000000000E+00   0.00000000000000E+00
      0.00000000000000E+00   0.00000000000000E+00   0.00000000000000E+00  -6.43225569659486E-16
      0.00000000000000E+00
      0.00000000000000E+00   0.00000000000000E+00   0.00000000000000E+00   0.00000000000000E+00  -1.85361132027106E-15
     -2.10213886351911E-19  -1.85382153415741E-15   3.56124136081089E-16   1.00000000000000E+00   1.00000000000000E+00
      0.00000000000000E+00   0.00000000000000E+00   1.84422708680357E-15   4.31344050098404E-20   1.84427022120858E-15
      8.04432789270161E-16  -5.00000000000000E-01  -5.00000000000000E-01   0.00000000000000E+00   0.00000000000000E+00
      0.00000000000000E+00   0.00000000000000E+00   0.00000000000000E+00  -6.43225569418621E-16
      1.00000000000000E-03
      0.00000000000000E+00   0.00000000000000E+00   0.00000000000000E+00   0.00000000000000E+00  -1.87851884477006E-15
     -2.10638713006019E-19  -1.87872948348306E-15   3.55961639168760E-16   1.00000000000000E+00   1.00000000000000E+00
      0.00000000000000E+00   0.00000000000000E+00   1.87799806848089E-15   4.31336327484204E-20   1.87804120211364E-15
      8.04029464030357E-16  -4.98000000000000E-01  -4.98000000000000E-01   0.00000000000000E+00   0.00000000000000E+00
      0.00000000000000E+00   0.00000000000000E+00   0.00000000000000E+00  -6.41544801098276E-16
      2.17333333333333E-03
      0.00000000000000E+00   0.00000000000000E+00   0.00000000000000E+00   0.00000000000000E+00  -1.90047164052473E-15
     -2.11150302536705E-19  -1.90068279082726E-15   3.55770255736602E-16   1.00000000000000E+00   1.00000000000000E+00
      0.00000000000000E+00   0.00000000000000E+00   1.89977217082424E-15   4.31327223639916E-20   1.89981530354660E-15
      8.03555656128899E-16  -4.95653333333333E-01  -4.95653333333333E-01   0.00000000000000E+00   0.00000000000000E+00
      0.00000000000000E+00   0.00000000000000E+00   0.00000000000000E+00  -6.39577875302461E-16
      3.56568888888889E-03
      0.00000000000000E+00   0.00000000000000E+00   0.00000000000000E+00   0.00000000000000E+00  -1.92910686510352E-15
     -2.11775701723717E-19  -1.92931864080524E-15   3.55542128822921E-16   1.00000000000000E+00   1.00000000000000E+00
      0.00000000000000E+00   0.00000000000000E+00   1.93932147748636E-15   4.31316360502389E-20   1.93936460912241E-15
      8.02992605371110E-16  -4.92868622222222E-01  -4.92868622222222E-01   0.00000000000000E+00   0.00000000000000E+00
      0.00000000000000E+00   0.00000000000000E+00   0.00000000000000E+00  -6.37251078396157E-16
      5.21795081481481E-03
      0.00000000000000E+00   0.00000000000000E+00   0.00000000000000E+00   0.00000000000000E+00  -1.96805137528289E-15
     -2.12543471132169E-19  -1.96826391875403E-15   3.55269968166355E-16   1.00000000000000E+00   1.00000000000000E+00
      0.00000000000000E+00   0.00000000000000E+00   1.97500093545804E-15   4.31303384906585E-20   1.97504406579653E-15
      8.02323333122151E-16  -4.89564098370370E-01  -4.89564098370370E-01   0.00000000000000E+00   0.00000000000000E+00
      0.00000000000000E+00   0.00000000000000E+00   0.00000000000000E+00  -6.34500275065929E-16
      7.17863496691358E-03
      0.00000000000000E+00   0.00000000000000E+00   0.00000000000000E+00   0.00000000000000E+00  -2.02274410076375E-15
     -2.13490298681669E-19  -2.02295759106243E-15   3.54944935933564E-16   1.00000000000000E+00   1.00000000000000E+00
      0.00000000000000E+00   0.00000000000000E+00   2.02248226269195E-15   4.31287867397122E-20   2.02252539147869E-15
      8.01527563889704E-16  -4.85642730066173E-01  -4.85642730066173E-01   0.00000000000000E+00   0.00000000000000E+00
      0.00000000000000E+00   0.00000000000000E+00   0.00000000000000E+00  -6.31250648171050E-16
      9.50531349407078E-03
      0.00000000000000E+00   0.00000000000000E+00   0.00000000000000E+00   0.00000000000000E+00  -2.06915108838813E-15
     -2.14663472660254E-19  -2.06936575186079E-15   3.54556274198363E-16   1.00000000000000E+00   1.00000000000000E+00
      0.00000000000000E+00   0.00000000000000E+00   2.06568197264683E-15   4.31269283513370E-20   2.06572509957518E-15
      8.00581058748734E-16  -4.80989373011858E-01  -4.80989373011858E-01   0.00000000000000E+00   0.00000000000000E+00
      0.00000000000000E+00   0.00000000000000E+00   0.00000000000000E+00  -6.27415271510119E-16
      1.22663053462973E-02
      0.00000000000000E+00   0.00000000000000E+00   0.00000000000000E+00   0.00000000000000E+00  -2.15063546130557E-15
     -2.16123988218237E-19  -2.15085158529379E-15   3.54090823669958E-16   1.00000000000000E+00   1.00000000000000E+00
      0.00000000000000E+00   0.00000000000000E+00   2.15007255161774E-15   4.31246989529342E-20   2.15011567631669E-15
      7.99454802919171E-16  -4.75467389307405E-01  -4.75467389307405E-01   0.00000000000000E+00   0.00000000000000E+00
      0.00000000000000E+00   0.00000000000000E+00   0.00000000000000E+00  -6.22893680666131E-16
      1.55426823442728E-02
      0.00000000000000E+00   0.00000000000000E+00   0.00000000000000E+00   0.00000000000000E+00  -2.23114909618927E-15
     -2.17950403637888E-19  -2.23136704659291E-15   3.53532392539746E-16   1.00000000000000E+00   1.00000000000000E+00
      0.00000000000000E+00   0.00000000000000E+00   2.22228351460158E-15   4.31220190476737E-20   2.22232663662063E-15
      7.98114009174001E-16  -4.68914635311454E-01  -4.68914635311454E-01   0.00000000000000E+00   0.00000000000000E+00
      0.00000000000000E+00   0.00000000000000E+00   0.00000000000000E+00  -6.17570588732188E-16
      1.94306497152037E-02
      0.00000000000000E+00   0.00000000000000E+00   0.00000000000000E+00   0.00000000000000E+00  -2.36134273799610E-15
     -2.20243328530515E-19  -2.36156298132463E-15   3.52860915660269E-16   1.00000000000000E+00   1.00000000000000E+00
      0.00000000000000E+00   0.00000000000000E+00   2.36673847298885E-15   4.31187897179034E-20   2.36678159177857E-15
      7.96516884753586E-16  -4.61138700569592E-01  -4.61138700569592E-01   0.00000000000000E+00   0.00000000000000E+00
      0.00000000000000E+00   0.00000000000000E+00   0.00000000000000E+00  -6.11315009485381E-16
      2.40443709953751E-02
      0.00000000000000E+00   0.00000000000000E+00   0.00000000000000E+00   0.00000000000000E+00  -2.49617649798490E-15
     -2.23130744250799E-19  -2.49639962872915E-15   3.52051309118862E-16   1.00000000000000E+00   1.00000000000000E+00
      0.00000000000000E+00   0.00000000000000E+00   2.49178530104415E-15   4.31148866787872E-20   2.49182841593083E-15
      7.94613083161336E-16  -4.51911258009250E-01  -4.51911258009250E-01   0.00000000000000E+00   0.00000000000000E+00
      0.00000000000000E+00   0.00000000000000E+00   0.00000000000000E+00  -6.03980303487822E-16
      2.95193202478451E-02
      0.00000000000000E+00   0.00000000000000E+00   0.00000000000000E+00   0.00000000000000E+00  -2.69485683540575E-15
     -2.26774522059478E-19  -2.69508360992781E-15   3.51071871455339E-16   1.00000000000000E+00   1.00000000000000E+00
      0.00000000000000E+00   0.00000000000000E+00   2.69670065287073E-15   4.31101517501437E-20   2.69674376302248E-15
      7.92341718671066E-16  -4.40961359504310E-01  -4.40961359504310E-01   0.00000000000000E+00   0.00000000000000E+00
      0.00000000000000E+00   0.00000000000000E+00   0.00000000000000E+00  -5.95406102185677E-16
      3.60162600274429E-02
      0.00000000000000E+00   0.00000000000000E+00   0.00000000000000E+00   0.00000000000000E+00  -2.95527617346256E-15
     -2.31382780995928E-19  -2.95550755624355E-15   3.49881972513534E-16   1.00000000000000E+00   1.00000000000000E+00
      0.00000000000000E+00   0.00000000000000E+00   2.97039106253995E-15   4.31043799783935E-20   2.97043416691993E-15
      7.89628729687132E-16  -4.27967479945114E-01  -4.27967479945114E-01   0.00000000000000E+00   0.00000000000000E+00
      0.00000000000000E+00   0.00000000000000E+00   0.00000000000000E+00  -5.85424055115371E-16
      4.37259618992322E-02
      0.00000000000000E+00   0.00000000000000E+00   0.00000000000000E+00   0.00000000000000E+00  -3.32614057051363E-15
     -2.37243184880283E-19  -3.32637781369851E-15   3.48428594859453E-16   1.00000000000000E+00   1.00000000000000E+00
      0.00000000000000E+00   0.00000000000000E+00   3.31516532594026E-15   4.30972991281422E-20   3.31520842323938E-15
      7.86383214996987E-16  -4.12548076201536E-01  -4.12548076201536E-01   0.00000000000000E+00   0.00000000000000E+00
      0.00000000000000E+00   0.00000000000000E+00   0.00000000000000E+00  -5.73871138229590E-16
      5.27720120954650E-02
      0.00000000000000E+00   0.00000000000000E+00   0.00000000000000E+00   0.00000000000000E+00  -3.84021359653315E-15
     -2.44735797838470E-19  -3.84045833233098E-15   3.46661486964427E-16   1.00000000000000E+00   1.00000000000000E+00