DF-ISE text

Info {
  version   = 1.0
  type      = xyplot
  datasets  = [
    "time"
    "S OuterVoltage" "S InnerVoltage" "S QuasiFermiPotential" "S DisplacementCurrent" "S eCurrent"
    "S hCurrent" "S TotalCurrent" "S Charge" "D OuterVoltage" "D InnerVoltage"
    "D QuasiFermiPotential" "D DisplacementCurrent" "D eCurrent" "D hCurrent" "D TotalCurrent"
    "D Charge" "G OuterVoltage" "G InnerVoltage" "G QuasiFermiPotential" "G DisplacementCurrent"
    "G eCurrent" "G hCurrent" "G TotalCurrent" "G Charge" ]
  functions = [
    Time
    OuterVoltage InnerVoltage QuasiFermiPotential DisplacementCurrent eCurrent
    hCurrent TotalCurrent Charge OuterVoltage InnerVoltage
    QuasiFermiPotential DisplacementCurrent eCurrent hCurrent TotalCurrent
    Charge OuterVoltage InnerVoltage QuasiFermiPotential DisplacementCurrent
    eCurrent hCurrent TotalCurrent Charge ]
}

Data {
      0.00000000000000E+00
      0.00000000000000E+00   0.00000000000000E+00   0.00000000000000E+00   0.00000000000000E+00  -5.54268560089506E-38
      2.10553513164320E-34   2.10498086308311E-34   3.27630900480078E-16   0.00000000000000E+00   0.00000000000000E+00
      0.00000000000000E+00   0.00000000000000E+00   5.74866004785388E-19   2.80762882416385E-34   5.74866004785389E-19
      4.79892363444162E-16  -5.00000000000000E-01  -5.00000000000000E-01   0.00000000000000E+00   0.00000000000000E+00
      0.00000000000000E+00   0.00000000000000E+00   0.00000000000000E+00  -3.86465733571548E-16
      0.00000000000000E+00
      0.00000000000000E+00   0.00000000000000E+00   0.00000000000000E+00   0.00000000000000E+00   2.31085694234126E-18
      4.29579037230948E-31   2.31085694234169E-18   3.27630900213029E-16   0.00000000000000E+00   0.00000000000000E+00
      0.00000000000000E+00   0.00000000000000E+00  -3.43164874999352E-18   4.28861457818125E-31  -3.43164874999310E-18
      4.79892363176688E-16  -5.00000000000000E-01  -5.00000000000000E-01   0.00000000000000E+00   0.00000000000000E+00
      0.00000000000000E+00   0.00000000000000E+00   0.00000000000000E+00  -3.86465733704958E-16
      1.00000000000000E-03
      0.00000000000000E+00   0.00000000000000E+00   0.00000000000000E+00   0.00000000000000E+00  -1.78814219865438E-18
     -5.32341592979111E-22  -1.78867454024736E-18   3.27588673411379E-16   1.00000000000000E-03   1.00000000000000E-03
      0.00000000000000E+00   0.00000000000000E+00  -3.33622108810219E-18   7.61591676214703E-22  -3.33545949642598E-18
      4.80118155372389E-16  -5.00000000000000E-01  -5.00000000000000E-01   0.00000000000000E+00   0.00000000000000E+00
      0.00000000000000E+00   0.00000000000000E+00   0.00000000000000E+00  -3.86896569717258E-16
      2.17333333333333E-03
      0.00000000000000E+00   0.00000000000000E+00   0.00000000000000E+00   0.00000000000000E+00  -3.58637251945564E-18
     -1.16170419385562E-21  -3.58753422364950E-18   3.27539416418412E-16   2.17333333333333E-03   2.17333333333333E-03
      0.00000000000000E+00   0.00000000000000E+00   3.61981386237034E-18   1.63874936603489E-21   3.62145261173638E-18
      4.80383368103555E-16  -5.00000000000000E-01  -5.00000000000000E-01   0.00000000000000E+00   0.00000000000000E+00
      0.00000000000000E+00   0.00000000000000E+00   0.00000000000000E+00  -3.87399480996154E-16
      3.56568888888889E-03
      0.00000000000000E+00   0.00000000000000E+00   0.00000000000000E+00   0.00000000000000E+00  -4.25436031089502E-18
     -1.91505276393996E-21  -4.25627536365896E-18   3.27481369719962E-16   3.56568888888889E-03   3.56568888888889E-03
      0.00000000000000E+00   0.00000000000000E+00   3.11393352172727E-19   2.65677787777183E-21   3.14050130050499E-19
      4.80698483005844E-16  -5.00000000000000E-01  -5.00000000000000E-01   0.00000000000000E+00   0.00000000000000E+00
      0.00000000000000E+00   0.00000000000000E+00   0.00000000000000E+00  -3.87992626172523E-16
      5.21795081481481E-03
      0.00000000000000E+00   0.00000000000000E+00   0.00000000000000E+00   0.00000000000000E+00  -6.07701639436667E-18
     -2.81793485904639E-21  -6.07983432922571E-18   3.27413057517945E-16   5.21795081481481E-03   5.21795081481481E-03
      0.00000000000000E+00   0.00000000000000E+00   1.60505418607732E-18   3.83294193998467E-21   1.60888712801730E-18
      4.81072974930402E-16  -5.00000000000000E-01  -5.00000000000000E-01   0.00000000000000E+00   0.00000000000000E+00
      0.00000000000000E+00   0.00000000000000E+00   0.00000000000000E+00  -3.88691369309891E-16
      7.17863496691358E-03
      0.00000000000000E+00   0.00000000000000E+00   0.00000000000000E+00   0.00000000000000E+00  -6.84875344951610E-18
     -3.90146379599321E-21  -6.85265491331209E-18   3.27332795433869E-16   7.17863496691358E-03   7.17863496691358E-03
      0.00000000000000E+00   0.00000000000000E+00   4.56930993016947E-18   5.18428273755081E-21   4.57449421290703E-18
      4.81518151227812E-16  -5.00000000000000E-01  -5.00000000000000E-01   0.00000000000000E+00   0.00000000000000E+00
      0.00000000000000E+00   0.00000000000000E+00   0.00000000000000E+00  -3.89513344657931E-16
      9.50531349407078E-03
      0.00000000000000E+00   0.00000000000000E+00   0.00000000000000E+00   0.00000000000000E+00  -4.11569249920224E-18
     -5.20355762974127E-21  -4.12089605683198E-18   3.27238677788454E-16   9.50531349407078E-03   9.50531349407078E-03
      0.00000000000000E+00   0.00000000000000E+00   7.05737227485612E-18   6.72635302131072E-21   7.06409862787743E-18
      4.82047518213560E-16  -5.00000000000000E-01  -5.00000000000000E-01   0.00000000000000E+00   0.00000000000000E+00
      0.00000000000000E+00   0.00000000000000E+00   0.00000000000000E+00  -3.90478647117553E-16
      1.22663053462973E-02
      0.00000000000000E+00   0.00000000000000E+00   0.00000000000000E+00   0.00000000000000E+00  -1.27805604561573E-19
     -6.77038646045205E-21  -1.34575991022025E-19   3.27128572834016E-16   1.22663053462973E-02   1.22663053462973E-02
      0.00000000000000E+00   0.00000000000000E+00   7.34819462803688E-18   8.47137467423817E-21   7.35666600271112E-18
      4.82677225261905E-16  -5.00000000000000E-01  -5.00000000000000E-01   0.00000000000000E+00   0.00000000000000E+00
      0.00000000000000E+00   0.00000000000000E+00   0.00000000000000E+00  -3.91609966622929E-16
      1.55426823442728E-02
      0.00000000000000E+00   0.00000000000000E+00   0.00000000000000E+00   0.00000000000000E+00  -9.77071727491057E-18
     -8.65799852203004E-21  -9.77937527343260E-18   3.27000130239775E-16   1.55426823442728E-02   1.55426823442728E-02
      0.00000000000000E+00   0.00000000000000E+00   4.04106341843100E-18   1.04256779655556E-20   4.05148909639655E-18
      4.83426603201980E-16  -5.00000000000000E-01  -5.00000000000000E-01   0.00000000000000E+00   0.00000000000000E+00
      0.00000000000000E+00   0.00000000000000E+00   0.00000000000000E+00  -3.92932630586331E-16
      1.94306497152037E-02
      0.00000000000000E+00   0.00000000000000E+00   0.00000000000000E+00   0.00000000000000E+00  -1.04378328715022E-17
     -1.09340341714469E-20  -1.04487669056736E-17   3.26850805591534E-16   1.94306497152037E-02   1.94306497152037E-02
      0.00000000000000E+00   0.00000000000000E+00   5.57756249425742E-18   1.25863203848692E-20   5.59014881464229E-18
      4.84318816141646E-16  -5.00000000000000E-01  -5.00000000000000E-01   0.00000000000000E+00   0.00000000000000E+00
      0.00000000000000E+00   0.00000000000000E+00   0.00000000000000E+00  -3.94474514000104E-16
      2.40443709953751E-02
      0.00000000000000E+00   0.00000000000000E+00   0.00000000000000E+00   0.00000000000000E+00  -1.45165575853521E-17
     -1.36792402893878E-20  -1.45302368256414E-17   3.26677909967066E-16   2.40443709953751E-02   2.40443709953751E-02
      0.00000000000000E+00   0.00000000000000E+00   3.80307256254058E-18   1.49369477114498E-20   3.81800951025203E-18
      4.85381651242356E-16  -5.00000000000000E-01  -5.00000000000000E-01   0.00000000000000E+00   0.00000000000000E+00
      0.00000000000000E+00   0.00000000000000E+00   0.00000000000000E+00  -3.96265746601298E-16
      2.95193202478451E-02
      0.00000000000000E+00   0.00000000000000E+00   0.00000000000000E+00   0.00000000000000E+00  -1.16399637701094E-17
     -1.69884074512557E-20  -1.16569521775606E-17   3.26478685722926E-16   2.95193202478451E-02   2.95193202478451E-02
      0.00000000000000E+00   0.00000000000000E+00   6.85029062699239E-18   1.74431677960609E-20   6.86773379478845E-18
      4.86648466669928E-16  -5.00000000000000E-01  -5.00000000000000E-01   0.00000000000000E+00   0.00000000000000E+00
      0.00000000000000E+00   0.00000000000000E+00   0.00000000000000E+00  -3.98338203243111E-16
      3.60162600274429E-02
      0.00000000000000E+00   0.00000000000000E+00   0.00000000000000E+00   0.00000000000000E+00  -1.65733917087751E-17
     -2.09699598915629E-20  -1.65943616686667E-17   3.26250409526512E-16   3.60162600274429E-02   3.60162600274429E-02
      0.00000000000000E+00   0.00000000000000E+00   9.29075601982282E-18   2.00482656889631E-20   9.31080428551179E-18
      4.88159320472081E-16  -5.00000000000000E-01  -5.00000000000000E-01   0.00000000000000E+00   0.00000000000000E+00
      0.00000000000000E+00   0.00000000000000E+00   0.00000000000000E+00  -4.00724757485308E-16
      4.37259618992322E-02
      0.00000000000000E+00   0.00000000000000E+00   0.00000000000000E+00   0.00000000000000E+00  -1.38248626288158E-17
     -2.57432323251056E-20  -1.38506058611409E-17   3.25990507826464E-16   4.37259618992322E-02   4.37259618992322E-02
      0.00000000000000E+00   0.00000000000000E+00   1.25126214819570E-17   2.26707766395704E-20   1.25352922585966E-17
      4.89962290786097E-16  -5.00000000000000E-01  -5.00000000000000E-01   0.00000000000000E+00   0.00000000000000E+00
      0.00000000000000E+00   0.00000000000000E+00   0.00000000000000E+00  -4.03458403288221E-16
      5.27720120954650E-02
      0.00000000000000E+00   0.00000000000000E+00   0.00000000000000E+00   0.00000000000000E+00  -1.94296227589491E-17
     -3.13695603725944E-20  -1.94609923193217E-17   3.25699835209347E-16   5.27720120954650E-02   5.27720120954650E-02
      0.00000000000000E+00   0.00000000000000E+00   1.70155873442668E-17   2.51807836535663E-20   1.70407681279204E-17
      4.92090688569218E-16  -5.00000000000000E-01  -5.00000000000000E-01   0.00000000000000E+00   0.00000000000000E+00
      0.00000000000000E+00   0.00000000000000E+00   0.00000000000000E+00  -4.06537564475723E-16
      6.33860443257115E-02
      0.00000000000000E+00   0.00000000000000E+00   0.00000000000000E+00   0.00000000000000E+00  -1.63728364691999E-17
     -3.79517519314979E-20  -1.64107882211314E-17   3.25376729234278E-16   6.33860443257115E-02   6.33860443257115E-02
      0.00000000000000E+00   0.00000000000000E+00   1.47297666757275E-17   2.74713272577005E-20   1.47572380029852E-17
      4.94603917067718E-16  -5.00000000000000E-01  -5.00000000000000E-01   0.00000000000000E+00   0.00000000000000E+00
      0.00000000000000E+00   0.00000000000000E+00   0.00000000000000E+00  -4.09988178595571E-16
      7.58398421425341E-02
      0.00000000000000E+00   0.00000000000000E+00   0.00000000000000E+00   0.00000000000000E+00  -2.03707115891487E-17
     -4.55876375259607E-20  -2.04162992266747E-17   3.25019310683212E-16   7.58398421425341E-02   7.58398421425341E-02
      0.00000000000000E+00   0.00000000000000E+00   1.92392500429457E-17   2.94422984097015E-20   1.92686923413554E-17
      4.97571473816999E-16  -5.00000000000000E-01  -5.00000000000000E-01   0.00000000000000E+00   0.00000000000000E+00
      0.00000000000000E+00   0.00000000000000E+00   0.00000000000000E+00  -4.13838843325036E-16
      9.04522982476059E-02
      0.00000000000000E+00   0.00000000000000E+00   0.00000000000000E+00   0.00000000000000E+00  -1.97026960576924E-17
     -5.43805886368396E-20  -1.97570766463293E-17   3.24624817693163E-16   9.04522982476059E-02   9.04522982476059E-02
      0.00000000000000E+00   0.00000000000000E+00   1.86386334440119E-17   3.10212309338214E-20   1.86696546749457E-17
      5.01074004428171E-16  -5.00000000000000E-01  -5.00000000000000E-01   0.00000000000000E+00   0.00000000000000E+00
      0.00000000000000E+00   0.00000000000000E+00   0.00000000000000E+00  -4.18126133052548E-16
      1.07597580077557E-01
      0.00000000000000E+00   0.00000000000000E+00   0.00000000000000E+00   0.00000000000000E+00  -2.67198914555797E-17
     -6.44691429267480E-20  -2.67843605985065E-17   3.24188694312308E-16   1.07597580077557E-01   1.07597580077557E-01
      0.00000000000000E+00   0.00000000000000E+00   2.30010898190860E-17   3.21827127882914E-20   2.30332725318743E-17
      5.05204402197654E-16  -5.00000000000000E-01  -5.00000000000000E-01   0.00000000000000E+00   0.00000000000000E+00
      0.00000000000000E+00   0.00000000000000E+00   0.00000000000000E+00  -4.22901902797760E-16
      1.27714710758033E-01
      0.00000000000000E+00   0.00000000000000E+00   0.00000000000000E+00   0.00000000000000E+00  -2.80504449917128E-17
     -7.60712059179955E-20  -2.81265161976308E-17   3.23703778718128E-16   1.27714710758033E-01   1.27714710758033E-01
      0.00000000000000E+00   0.00000000000000E+00   2.41763927041409E-17   3.29571023542627E-20   2.42093498064951E-17
      5.10069318963034E-16  -5.00000000000000E-01  -5.00000000000000E-01   0.00000000000000E+00   0.00000000000000E+00
      0.00000000000000E+00   0.00000000000000E+00   0.00000000000000E+00  -4.28239693572724E-16
      1.51318810756457E-01
      0.00000000000000E+00   0.00000000000000E+00   0.00000000000000E+00   0.00000000000000E+00  -3.91841956389143E-17
     -8.95343698676926E-20  -3.92737300087820E-17   3.23159836068913E-16   1.51318810756457E-01   1.51318810756457E-01
      0.00000000000000E+00   0.00000000000000E+00   3.77293525087272E-17   3.34222629916862E-20   3.77627747717189E-17
      5.15791336869829E-16  -5.00000000000000E-01  -5.00000000000000E-01   0.00000000000000E+00   0.00000000000000E+00
      0.00000000000000E+00   0.00000000000000E+00   0.00000000000000E+00  -4.34238237088467E-16
      1.79014288087943E-01
      0.00000000000000E+00   0.00000000000000E+00   0.00000000000000E+00   0.00000000000000E+00  -4.22065023073392E-17
     -1.05448388822071E-19  -4.23119506961613E-17   3.22542619156844E-16   1.79014288087943E-01   1.79014288087943E-01
      0.00000000000000E+00   0.00000000000000E+00   3.97300392278884E-17   3.36784676172158E-20   3.97637176955056E-17
      5.22511048071820E-16  -5.00000000000000E-01  -5.00000000000000E-01   0.00000000000000E+00   0.00000000000000E+00
      0.00000000000000E+00   0.00000000000000E+00   0.00000000000000E+00  -4.41029536534984E-16
      2.11510314823552E-01
      0.00000000000000E+00   0.00000000000000E+00   0.00000000000000E+00   0.00000000000000E+00  -5.17388174768793E-17
     -1.25049408252953E-19  -5.18638668851323E-17   3.21830371975415E-16   2.11510314823552E-01   2.11510314823552E-01
      0.00000000000000E+00   0.00000000000000E+00   4.84013509851988E-17   3.38176331014091E-20   4.84351686183002E-17
      5.30387157802147E-16  -5.00000000000000E-01  -5.00000000000000E-01   0.00000000000000E+00   0.00000000000000E+00
      0.00000000000000E+00   0.00000000000000E+00   0.00000000000000E+00  -4.48811056369330E-16
      2.49638986193334E-01
      0.00000000000000E+00   0.00000000000000E+00   0.00000000000000E+00   0.00000000000000E+00  -6.69399156762642E-17
     -1.51113669565526E-19  -6.70910293458297E-17   3.20989073779238E-16   2.49638986193334E-01   2.49638986193334E-01
      0.00000000000000E+00   0.00000000000000E+00   6.66452695454527E-17   3.39018404452128E-20   6.66791713858979E-17
      5.39595805187337E-16  -5.00000000000000E-01  -5.00000000000000E-01   0.00000000000000E+00   0.00000000000000E+00
      0.00000000000000E+00   0.00000000000000E+00   0.00000000000000E+00  -4.57891901732284E-16
      2.93868244982280E-01
      0.00000000000000E+00   0.00000000000000E+00   0.00000000000000E+00   0.00000000000000E+00  -9.51952545000223E-17
     -1.88418874661317E-19  -9.53836733746836E-17   3.19987149883434E-16   2.93868244982280E-01   2.93868244982280E-01
      0.00000000000000E+00   0.00000000000000E+00   1.02780526732020E-16   3.39660322743294E-20   1.02814492764294E-16
      5.50215169851564E-16  -5.00000000000000E-01  -5.00000000000000E-01   0.00000000000000E+00   0.00000000000000E+00
      0.00000000000000E+00   0.00000000000000E+00   0.00000000000000E+00  -4.68545856322751E-16
      3.45174185177458E-01
      0.00000000000000E+00   0.00000000000000E+00   0.00000000000000E+00   0.00000000000000E+00  -1.38104142211402E-16
     -2.43035481248559E-19  -1.38347177692650E-16   3.18800125571028E-16   3.45174185177458E-01   3.45174185177458E-01
      0.00000000000000E+00   0.00000000000000E+00   1.48113696743616E-16   3.40376952052117E-20   1.48147734438821E-16
      5.62453722128290E-16  -5.00000000000000E-01  -5.00000000000000E-01   0.00000000000000E+00   0.00000000000000E+00
      0.00000000000000E+00   0.00000000000000E+00   0.00000000000000E+00  -4.80996894971190E-16
      4.04689075803865E-01
      0.00000000000000E+00   0.00000000000000E+00   0.00000000000000E+00   0.00000000000000E+00  -2.22430968603625E-16
     -3.12030361177939E-19  -2.22742998964803E-16   3.17470554807775E-16   4.04689075803865E-01   4.04689075803865E-01
      0.00000000000000E+00   0.00000000000000E+00   2.13883091569798E-16   3.41319243498540E-20   2.13917223494148E-16
      5.76600894397105E-16  -5.00000000000000E-01  -5.00000000000000E-01   0.00000000000000E+00   0.00000000000000E+00
      0.00000000000000E+00   0.00000000000000E+00   0.00000000000000E+00  -4.94833781044568E-16
      4.73726348930496E-01
      0.00000000000000E+00   0.00000000000000E+00   0.00000000000000E+00   0.00000000000000E+00  -3.72563607854321E-16
     -3.75241304653091E-19  -3.72938849158974E-16   3.16081598622063E-16   4.73726348930496E-01   4.73726348930496E-01
      0.00000000000000E+00   0.00000000000000E+00   3.64736638841184E-16   3.42550124881777E-20   3.64770893853672E-16
      5.92991162207209E-16  -5.00000000000000E-01  -5.00000000000000E-01   0.00000000000000E+00   0.00000000000000E+00
      0.00000000000000E+00   0.00000000000000E+00   0.00000000000000E+00  -5.09238114374780E-16
      5.53809585757389E-01
      0.00000000000000E+00   0.00000000000000E+00   0.00000000000000E+00   0.00000000000000E+00  -6.70666550231016E-16
     -4.15495509004562E-19  -6.71082045740021E-16   3.14641242099024E-16   5.53809585757389E-01   5.53809585757389E-01
      0.00000000000000E+00   0.00000000000000E+00   6.66290531924956E-16   3.44006240112973E-20   6.66324932548968E-16
      6.11874890792008E-16  -5.00000000000000E-01  -5.00000000000000E-01   0.00000000000000E+00   0.00000000000000E+00
      0.00000000000000E+00   0.00000000000000E+00   0.00000000000000E+00  -5.24067988314336E-16
      6.45638363985559E-01
      0.00000000000000E+00   0.00000000000000E+00   0.00000000000000E+00   0.00000000000000E+00  -1.32458314052582E-15
     -4.58106484266639E-19  -1.32504124701009E-15   3.13011811014320E-16   6.45638363985559E-01   6.45638363985559E-01
      0.00000000000000E+00   0.00000000000000E+00   1.32133996328415E-15   3.45668712700872E-20   1.32137453015542E-15
      6.33033956723982E-16  -5.00000000000000E-01  -5.00000000000000E-01   0.00000000000000E+00   0.00000000000000E+00
      0.00000000000000E+00   0.00000000000000E+00   0.00000000000000E+00  -5.40499465004438E-16
      7.52159746730237E-01
      0.00000000000000E+00   0.00000000000000E+00   0.00000000000000E+00   0.00000000000000E+00  -2.85678961749903E-15
     -5.07925076757695E-19  -2.85729754257579E-15   3.11144706347506E-16   7.52159746730237E-01   7.52159746730237E-01
      0.00000000000000E+00   0.00000000000000E+00   2.86570379160942E-15   3.47600708476710E-20   2.86573855168026E-15
      6.56482709978371E-16  -5.00000000000000E-01  -5.00000000000000E-01   0.00000000000000E+00   0.00000000000000E+00
      0.00000000000000E+00   0.00000000000000E+00   0.00000000000000E+00  -5.58683932342831E-16
      8.74304265610800E-01
      0.00000000000000E+00   0.00000000000000E+00   0.00000000000000E+00   0.00000000000000E+00  -6.50472562676235E-15
     -5.27003970047755E-19  -6.50525263073240E-15   3.09184917577612E-16   8.74304265610800E-01   8.74304265610800E-01
      0.00000000000000E+00   0.00000000000000E+00   6.50529058812538E-15   3.49871035187519E-20   6.50532557522890E-15
      6.80724608760326E-16  -5.00000000000000E-01  -5.00000000000000E-01   0.00000000000000E+00   0.00000000000000E+00
      0.00000000000000E+00   0.00000000000000E+00   0.00000000000000E+00  -5.76241165731511E-16
      1.00000000000000E+00
      0.00000000000000E+00   0.00000000000000E+00   0.00000000000000E+00   0.00000000000000E+00  -1.39911824107574E-14
     -5.16952957755624E-19  -1.39916993637151E-14   3.07354502578232E-16   1.00000000000000E+00   1.00000000000000E+00
      0.00000000000000E+00   0.00000000000000E+00   1.40009042273294E-14   3.52295375779713E-20   1.40009394568670E-14
      7.01239323381925E-16  -5.00000000000000E-01  -5.00000000000000E-01   0.00000000000000E+00   0.00000000000000E+00
      0.00000000000000E+00   0.00000000000000E+00   0.00000000000000E+00  -5.89920740668560E-16
      0.00000000000000E+00
      0.00000000000000E+00   0.00000000000000E+00   0.00000000000000E+00   0.00000000000000E+00  -1.39947701718707E-14
     -5.16952900357889E-19  -1.39952871247711E-14   3.07354502755234E-16   1.00000000000000E+00   1.00000000000000E+00
      0.00000000000000E+00   0.00000000000000E+00   1.39868013805707E-14   3.52295375798402E-20   1.39868366101083E-14
      7.01239323475861E-16  -5.00000000000000E-01  -5.00000000000000E-01   0.00000000000000E+00   0.00000000000000E+00
      0.00000000000000E+00   0.00000000000000E+00   0.00000000000000E+00  -5.89920739018592E-16
      1.00000000000000E-03
      0.00000000000000E+00   0.00000000000000E+00   0.00000000000000E+00   0.00000000000000E+00  -1.41348128614550E-14
     -5.10362859117719E-19  -1.41353232243141E-14   3.07246172626610E-16   1.00000000000000E+00   1.00000000000000E+00
      0.00000000000000E+00   0.00000000000000E+00   1.41422959645291E-14   3.52280863642138E-20   1.41423311926154E-14
      7.01050783477243E-16  -4.98000000000000E-01  -4.98000000000000E-01   0.00000000000000E+00   0.00000000000000E+00
      0.00000000000000E+00   0.00000000000000E+00   0.00000000000000E+00  -5.88182748968926E-16
      2.16000000000000E-03
      0.00000000000000E+00   0.00000000000000E+00   0.00000000000000E+00   0.00000000000000E+00  -1.43051664516768E-14
     -5.02804120819913E-19  -1.43056692557976E-14   3.07119714567665E-16   1.00000000000000E+00   1.00000000000000E+00
      0.00000000000000E+00   0.00000000000000E+00   1.43044514785354E-14   3.52263925144948E-20   1.43044867049279E-14
      7.00830859573555E-16  -4.95680000000000E-01  -4.95680000000000E-01   0.00000000000000E+00   0.00000000000000E+00
      0.00000000000000E+00   0.00000000000000E+00   0.00000000000000E+00  -5.86174875242111E-16
      3.53653333333333E-03
      0.00000000000000E+00   0.00000000000000E+00   0.00000000000000E+00   0.00000000000000E+00  -1.45076243774378E-14
     -4.93952856413598E-19  -1.45081183302942E-14   3.06968524394474E-16   1.00000000000000E+00   1.00000000000000E+00
      0.00000000000000E+00   0.00000000000000E+00   1.45133232818987E-14   3.52243679086935E-20   1.45133585062666E-14
      7.00568163903426E-16  -4.92926933333333E-01  -4.92926933333333E-01   0.00000000000000E+00   0.00000000000000E+00
      0.00000000000000E+00   0.00000000000000E+00   0.00000000000000E+00  -5.83803727989749E-16
      5.17001955555556E-03
      0.00000000000000E+00   0.00000000000000E+00   0.00000000000000E+00   0.00000000000000E+00  -1.47617278436194E-14
     -4.83624254810703E-19  -1.47622114678742E-14   3.06787462348053E-16   1.00000000000000E+00   1.00000000000000E+00
      0.00000000000000E+00   0.00000000000000E+00   1.47656329950162E-14   3.52219444997791E-20   1.47656682169607E-14
      7.00253956537888E-16  -4.89659960888889E-01  -4.89659960888889E-01   0.00000000000000E+00   0.00000000000000E+00
      0.00000000000000E+00   0.00000000000000E+00   0.00000000000000E+00  -5.81006676614580E-16
      7.08664338962963E-03
      0.00000000000000E+00   0.00000000000000E+00   0.00000000000000E+00   0.00000000000000E+00  -1.50654445591270E-14
     -4.71748921149762E-19  -1.50659163080482E-14   3.06572663431339E-16   1.00000000000000E+00   1.00000000000000E+00
      0.00000000000000E+00   0.00000000000000E+00   1.50687813001722E-14   3.52190719458206E-20   1.50688165192441E-14
      6.99881791406735E-16  -4.85826713220741E-01  -4.85826713220741E-01   0.00000000000000E+00   0.00000000000000E+00
      0.00000000000000E+00   0.00000000000000E+00   0.00000000000000E+00  -5.77748373399058E-16
      9.33548202160988E-03
      0.00000000000000E+00   0.00000000000000E+00   0.00000000000000E+00   0.00000000000000E+00  -1.54423488784943E-14
     -4.58162546532727E-19  -1.54428070410409E-14   3.06317243521103E-16   1.00000000000000E+00   1.00000000000000E+00
      0.00000000000000E+00   0.00000000000000E+00   1.54431039050401E-14   3.52156607914235E-20   1.54431391207009E-14
      6.99440174683186E-16  -4.81329035956780E-01  -4.81329035956780E-01   0.00000000000000E+00   0.00000000000000E+00
      0.00000000000000E+00   0.00000000000000E+00   0.00000000000000E+00  -5.73958785488069E-16
      1.19741193498000E-02
      0.00000000000000E+00   0.00000000000000E+00   0.00000000000000E+00   0.00000000000000E+00  -1.59065526499482E-14
     -4.42712318655087E-19  -1.59069953622669E-14   3.06012650607567E-16   1.00000000000000E+00   1.00000000000000E+00
      0.00000000000000E+00   0.00000000000000E+00   1.59170140826363E-14   3.52116014896129E-20   1.59170492942378E-14
      6.98915000098278E-16  -4.76051761300400E-01  -4.76051761300400E-01   0.00000000000000E+00   0.00000000000000E+00
      0.00000000000000E+00   0.00000000000000E+00   0.00000000000000E+00  -5.69559995945530E-16
      1.50701204815431E-02
      0.00000000000000E+00   0.00000000000000E+00   0.00000000000000E+00   0.00000000000000E+00  -1.65006288065372E-14
     -4.25275827842977E-19  -1.65010540823650E-14   3.05648130602260E-16   1.00000000000000E+00   1.00000000000000E+00
      0.00000000000000E+00   0.00000000000000E+00   1.64956209640080E-14   3.52067589484850E-20   1.64956561707669E-14
      6.98288807981356E-16  -4.69859759036914E-01  -4.69859759036914E-01   0.00000000000000E+00   0.00000000000000E+00
      0.00000000000000E+00   0.00000000000000E+00   0.00000000000000E+00  -5.64466877715565E-16
      1.87027618094551E-02
      0.00000000000000E+00   0.00000000000000E+00   0.00000000000000E+00   0.00000000000000E+00  -1.72421672223901E-14
     -4.05786473260294E-19  -1.72425730088634E-14   3.05209972847908E-16   1.00000000000000E+00   1.00000000000000E+00
      0.00000000000000E+00   0.00000000000000E+00   1.72479491227491E-14   3.52009652756589E-20   1.72479843237143E-14
      6.97539773003630E-16  -4.62594476381090E-01  -4.62594476381090E-01   0.00000000000000E+00   0.00000000000000E+00
      0.00000000000000E+00   0.00000000000000E+00   0.00000000000000E+00  -5.58588887322637E-16
      2.29650609675384E-02
      0.00000000000000E+00   0.00000000000000E+00   0.00000000000000E+00   0.00000000000000E+00  -1.82035592029661E-14
     -3.84265691990716E-19  -1.82039434686580E-14   3.04680423505019E-16   1.00000000000000E+00   1.00000000000000E+00
      0.00000000000000E+00   0.00000000000000E+00   1.81988580330681E-14   3.51940098887145E-20   1.81988932270780E-14
      6.96640290834530E-16  -4.54069878064923E-01  -4.54069878064923E-01   0.00000000000000E+00   0.00000000000000E+00
      0.00000000000000E+00   0.00000000000000E+00   0.00000000000000E+00  -5.51833777576403E-16
      2.79661586463562E-02
      0.00000000000000E+00   0.00000000000000E+00   0.00000000000000E+00   0.00000000000000E+00  -1.94802998271803E-14
     -3.60863787559326E-19  -1.94806606909678E-14   3.04036082685862E-16   1.00000000000000E+00   1.00000000000000E+00
      0.00000000000000E+00   0.00000000000000E+00   1.94736535646149E-14   3.51856254735001E-20   1.94736887502404E-14
      6.95554952070161E-16  -4.44067682707288E-01  -4.44067682707288E-01   0.00000000000000E+00   0.00000000000000E+00
      0.00000000000000E+00   0.00000000000000E+00   0.00000000000000E+00  -5.44114694534873E-16
      3.37674319537848E-02
      0.00000000000000E+00   0.00000000000000E+00   0.00000000000000E+00   0.00000000000000E+00  -2.11902553417235E-14
     -3.36168448871448E-19  -2.11905915101724E-14   3.03254748466453E-16   1.00000000000000E+00   1.00000000000000E+00
      0.00000000000000E+00   0.00000000000000E+00   2.11887016341044E-14   3.51755850071755E-20   2.11887368096894E-14
      6.94252836235134E-16  -4.32465136092430E-01  -4.32465136092430E-01   0.00000000000000E+00   0.00000000000000E+00
      0.00000000000000E+00   0.00000000000000E+00   0.00000000000000E+00  -5.35460291113890E-16
      4.04969089904020E-02
      0.00000000000000E+00   0.00000000000000E+00   0.00000000000000E+00   0.00000000000000E+00  -2.35461498410198E-14
     -3.10694471020735E-19  -2.35464605354909E-14   3.02298407213334E-16   1.00000000000000E+00   1.00000000000000E+00
      0.00000000000000E+00   0.00000000000000E+00   2.35404299256161E-14   3.51634911876076E-20   2.35404650891073E-14
      6.92680017638822E-16  -4.19006182019196E-01  -4.19006182019196E-01   0.00000000000000E+00   0.00000000000000E+00
      0.00000000000000E+00   0.00000000000000E+00   0.00000000000000E+00  -5.25858201020399E-16
      4.83031023528779E-02
      0.00000000000000E+00   0.00000000000000E+00   0.00000000000000E+00   0.00000000000000E+00  -2.69495136076670E-14
     -2.85161328445149E-19  -2.69497987689954E-14   3.01115216604725E-16   1.00000000000000E+00   1.00000000000000E+00