DF-ISE text

Info {
  version   = 1.0
  type      = xyplot
  datasets  = [
    "time"
    "S OuterVoltage" "S InnerVoltage" "S QuasiFermiPotential" "S DisplacementCurrent" "S eCurrent"
    "S hCurrent" "S TotalCurrent" "S Charge" "D OuterVoltage" "D InnerVoltage"
    "D QuasiFermiPotential" "D DisplacementCurrent" "D eCurrent" "D hCurrent" "D TotalCurrent"
    "D Charge" "G OuterVoltage" "G InnerVoltage" "G QuasiFermiPotential" "G DisplacementCurrent"
    "G eCurrent" "G hCurrent" "G TotalCurrent" "G Charge" ]
  functions = [
    Time
    OuterVoltage InnerVoltage QuasiFermiPotential DisplacementCurrent eCurrent
    hCurrent TotalCurrent Charge OuterVoltage InnerVoltage
    QuasiFermiPotential DisplacementCurrent eCurrent hCurrent TotalCurrent
    Charge OuterVoltage InnerVoltage QuasiFermiPotential DisplacementCurrent
    eCurrent hCurrent TotalCurrent Charge ]
}

Data {
      0.00000000000000E+00
      0.00000000000000E+00   0.00000000000000E+00   0.00000000000000E+00   0.00000000000000E+00   2.74382316075797E-19
     -5.13518520420274E-34   2.74382316075797E-19   6.64156858343940E-16   0.00000000000000E+00   0.00000000000000E+00
      0.00000000000000E+00   0.00000000000000E+00   1.62815759563778E-27  -5.17061969842110E-34   1.62815707857581E-27
      8.40447667720008E-16  -5.00000000000000E-01  -5.00000000000000E-01   0.00000000000000E+00   0.00000000000000E+00
      0.00000000000000E+00   0.00000000000000E+00   0.00000000000000E+00  -3.64316161288769E-16
      0.00000000000000E+00
      0.00000000000000E+00   0.00000000000000E+00   0.00000000000000E+00   0.00000000000000E+00  -8.23147192775468E-19
     -1.36613091504409E-30  -8.23147192776835E-19   6.64156857188910E-16   0.00000000000000E+00   0.00000000000000E+00
      0.00000000000000E+00   0.00000000000000E+00   1.91408642214240E-18  -1.36919168130666E-30   1.91408642214103E-18
      8.40447666413895E-16  -5.00000000000000E-01  -5.00000000000000E-01   0.00000000000000E+00   0.00000000000000E+00
      0.00000000000000E+00   0.00000000000000E+00   0.00000000000000E+00  -3.64316161291037E-16
      1.00000000000000E-03
      0.00000000000000E+00   0.00000000000000E+00   0.00000000000000E+00   0.00000000000000E+00  -2.58667264823603E-18
     -9.53999361535120E-22  -2.58762664759757E-18   6.63933208681013E-16   1.00000000000000E-03   1.00000000000000E-03
      0.00000000000000E+00   0.00000000000000E+00   4.76001204599978E-18   9.13920666059661E-22   4.76092596666584E-18
      8.40822528165477E-16  -5.00000000000000E-01  -5.00000000000000E-01   0.00000000000000E+00   0.00000000000000E+00
      0.00000000000000E+00   0.00000000000000E+00   0.00000000000000E+00  -3.64841343034870E-16
      2.17333333333333E-03
      0.00000000000000E+00   0.00000000000000E+00   0.00000000000000E+00   0.00000000000000E+00  -9.87471189688596E-18
     -2.08305696521982E-21  -9.87679495385118E-18   6.63673892117245E-16   2.17333333333333E-03   2.17333333333333E-03
      0.00000000000000E+00   0.00000000000000E+00   7.36071513617913E-18   1.97751055022360E-21   7.36269264672935E-18
      8.41265628662994E-16  -5.00000000000000E-01  -5.00000000000000E-01   0.00000000000000E+00   0.00000000000000E+00
      0.00000000000000E+00   0.00000000000000E+00   0.00000000000000E+00  -3.65452288813208E-16
      3.56568888888889E-03
      0.00000000000000E+00   0.00000000000000E+00   0.00000000000000E+00   0.00000000000000E+00  -1.56331240291173E-17
     -3.43585863778513E-21  -1.56365598877551E-17   6.63370518023146E-16   3.56568888888889E-03   3.56568888888889E-03
      0.00000000000000E+00   0.00000000000000E+00   1.49848320802646E-17   3.22682721362432E-21   1.49880589074782E-17
      8.41796004862911E-16  -5.00000000000000E-01  -5.00000000000000E-01   0.00000000000000E+00   0.00000000000000E+00
      0.00000000000000E+00   0.00000000000000E+00   0.00000000000000E+00  -3.66169881572173E-16
      5.21795081481481E-03
      0.00000000000000E+00   0.00000000000000E+00   0.00000000000000E+00   0.00000000000000E+00  -2.10311734459958E-17
     -5.05843783364188E-21  -2.10362318838294E-17   6.63016648351413E-16   5.21795081481481E-03   5.21795081481481E-03
      0.00000000000000E+00   0.00000000000000E+00   2.16865103837812E-17   4.69041019279594E-21   2.16912007939740E-17
      8.42431795652823E-16  -5.00000000000000E-01  -5.00000000000000E-01   0.00000000000000E+00   0.00000000000000E+00
      0.00000000000000E+00   0.00000000000000E+00   0.00000000000000E+00  -3.67010987130093E-16
      7.17863496691358E-03
      0.00000000000000E+00   0.00000000000000E+00   0.00000000000000E+00   0.00000000000000E+00  -2.83512836342314E-17
     -7.00640643182185E-21  -2.83582900406633E-17   6.62605373443102E-16   7.17863496691358E-03   7.17863496691358E-03
      0.00000000000000E+00   0.00000000000000E+00   2.69987262863750E-17   6.39909110536488E-21   2.70051253774803E-17
      8.43195262907540E-16  -5.00000000000000E-01  -5.00000000000000E-01   0.00000000000000E+00   0.00000000000000E+00
      0.00000000000000E+00   0.00000000000000E+00   0.00000000000000E+00  -3.67994373985646E-16
      9.50531349407078E-03
      0.00000000000000E+00   0.00000000000000E+00   0.00000000000000E+00   0.00000000000000E+00  -3.96184382107491E-17
     -9.34658791454037E-21  -3.96277847986636E-17   6.62129516213974E-16   9.50531349407078E-03   9.50531349407078E-03
      0.00000000000000E+00   0.00000000000000E+00   3.78295775816139E-17   8.38490069557438E-21   3.78379624823095E-17
      8.44113843634281E-16  -5.00000000000000E-01  -5.00000000000000E-01   0.00000000000000E+00   0.00000000000000E+00
      0.00000000000000E+00   0.00000000000000E+00   0.00000000000000E+00  -3.69140568792937E-16
      1.22663053462973E-02
      0.00000000000000E+00   0.00000000000000E+00   0.00000000000000E+00   0.00000000000000E+00  -5.02696663936997E-17
     -1.21584827511662E-20  -5.02818248764508E-17   6.61581984366515E-16   1.22663053462973E-02   1.22663053462973E-02
      0.00000000000000E+00   0.00000000000000E+00   4.77239786006978E-17   1.06790480040778E-20   4.77346576487019E-17
      8.45221495848289E-16  -5.00000000000000E-01  -5.00000000000000E-01   0.00000000000000E+00   0.00000000000000E+00
      0.00000000000000E+00   0.00000000000000E+00   0.00000000000000E+00  -3.70471496330881E-16
      1.55426823442728E-02
      0.00000000000000E+00   0.00000000000000E+00   0.00000000000000E+00   0.00000000000000E+00  -6.31777757810710E-17
     -1.55350690413240E-20  -6.31933108501123E-17   6.60956329371156E-16   1.55426823442728E-02   1.55426823442728E-02
      0.00000000000000E+00   0.00000000000000E+00   6.41361664439313E-17   1.33085159273913E-20   6.41494749598587E-17
      8.46560412957660E-16  -5.00000000000000E-01  -5.00000000000000E-01   0.00000000000000E+00   0.00000000000000E+00
      0.00000000000000E+00   0.00000000000000E+00   0.00000000000000E+00  -3.72009810097788E-16
      1.94306497152037E-02
      0.00000000000000E+00   0.00000000000000E+00   0.00000000000000E+00   0.00000000000000E+00  -7.73706556349692E-17
     -1.95819873039009E-20  -7.73902376222731E-17   6.60247584349908E-16   1.94306497152037E-02   1.94306497152037E-02
      0.00000000000000E+00   0.00000000000000E+00   7.68140556055363E-17   1.62907270705030E-20   7.68303463326069E-17
      8.48183189388292E-16  -5.00000000000000E-01  -5.00000000000000E-01   0.00000000000000E+00   0.00000000000000E+00
      0.00000000000000E+00   0.00000000000000E+00   0.00000000000000E+00  -3.73777797892587E-16
      2.40443709953751E-02
      0.00000000000000E+00   0.00000000000000E+00   0.00000000000000E+00   0.00000000000000E+00  -9.71106340796239E-17
     -2.44134918157480E-20  -9.71350475714396E-17   6.59453448773274E-16   2.40443709953751E-02   2.40443709953751E-02
      0.00000000000000E+00   0.00000000000000E+00   9.75331859403783E-17   1.96257341112580E-20   9.75528116744896E-17
      8.50155503168985E-16  -5.00000000000000E-01  -5.00000000000000E-01   0.00000000000000E+00   0.00000000000000E+00
      0.00000000000000E+00   0.00000000000000E+00   0.00000000000000E+00  -3.75795755346777E-16
      2.95193202478451E-02
      0.00000000000000E+00   0.00000000000000E+00   0.00000000000000E+00   0.00000000000000E+00  -1.14774821223772E-16
     -3.01425902679723E-20  -1.14804963814040E-16   6.58575865370902E-16   2.95193202478451E-02   2.95193202478451E-02
      0.00000000000000E+00   0.00000000000000E+00   1.14115254773137E-16   2.32857306242862E-20   1.14138540503761E-16
      8.52559334266476E-16  -5.00000000000000E-01  -5.00000000000000E-01   0.00000000000000E+00   0.00000000000000E+00
      0.00000000000000E+00   0.00000000000000E+00   0.00000000000000E+00  -3.78079760910875E-16
      3.60162600274429E-02
      0.00000000000000E+00   0.00000000000000E+00   0.00000000000000E+00   0.00000000000000E+00  -1.37038587988010E-16
     -3.68619599090306E-20  -1.37075449947919E-16   6.57622936225695E-16   3.60162600274429E-02   3.60162600274429E-02
      0.00000000000000E+00   0.00000000000000E+00   1.36848974814753E-16   2.72026185601414E-20   1.36876177433313E-16
      8.55496594441404E-16  -5.00000000000000E-01  -5.00000000000000E-01   0.00000000000000E+00   0.00000000000000E+00
      0.00000000000000E+00   0.00000000000000E+00   0.00000000000000E+00  -3.80638957028376E-16
      4.37259618992322E-02
      0.00000000000000E+00   0.00000000000000E+00   0.00000000000000E+00   0.00000000000000E+00  -1.67750506071679E-16
     -4.46122356407673E-20  -1.67795118307320E-16   6.56610940869086E-16   4.37259618992322E-02   4.37259618992322E-02
      0.00000000000000E+00   0.00000000000000E+00   1.64226838075144E-16   3.12564256509002E-20   1.64258094500795E-16
      8.59092786902592E-16  -5.00000000000000E-01  -5.00000000000000E-01   0.00000000000000E+00   0.00000000000000E+00
      0.00000000000000E+00   0.00000000000000E+00   0.00000000000000E+00  -3.83472761699659E-16
      5.28748081204222E-02
      0.00000000000000E+00   0.00000000000000E+00   0.00000000000000E+00   0.00000000000000E+00  -1.92873358676929E-16
     -5.33374614099634E-20  -1.92926696138339E-16   6.55565859513937E-16   5.28748081204222E-02   5.28748081204222E-02
      0.00000000000000E+00   0.00000000000000E+00   1.93526945988631E-16   3.52705311952573E-20   1.93562216519827E-16
      8.63499839805191E-16  -5.00000000000000E-01  -5.00000000000000E-01   0.00000000000000E+00   0.00000000000000E+00
      0.00000000000000E+00   0.00000000000000E+00   0.00000000000000E+00  -3.86569055535129E-16
      6.37314389695677E-02
      0.00000000000000E+00   0.00000000000000E+00   0.00000000000000E+00   0.00000000000000E+00  -2.35408262114718E-16
     -6.28364368442367E-20  -2.35471098551562E-16   6.54523358867906E-16   6.37314389695677E-02   6.37314389695677E-02
      0.00000000000000E+00   0.00000000000000E+00   2.12759821542483E-16   3.90229071459035E-20   2.12798844449629E-16
      8.68896650396716E-16  -5.00000000000000E-01  -5.00000000000000E-01   0.00000000000000E+00   0.00000000000000E+00
      0.00000000000000E+00   0.00000000000000E+00   0.00000000000000E+00  -3.89905157256865E-16
      7.66146409105537E-02
      0.00000000000000E+00   0.00000000000000E+00   0.00000000000000E+00   0.00000000000000E+00  -2.49307031005449E-16
     -7.27347489589087E-20  -2.49379765754408E-16   6.53525838611638E-16   7.66146409105537E-02   7.66146409105537E-02
      0.00000000000000E+00   0.00000000000000E+00   2.52370022755580E-16   4.22820295052909E-20   2.52412304785085E-16
      8.75485307599510E-16  -5.00000000000000E-01  -5.00000000000000E-01   0.00000000000000E+00   0.00000000000000E+00
      0.00000000000000E+00   0.00000000000000E+00   0.00000000000000E+00  -3.93454014544980E-16
      9.17309311879772E-02
      0.00000000000000E+00   0.00000000000000E+00   0.00000000000000E+00   0.00000000000000E+00  -2.79557672838244E-16
     -8.24177404323154E-20  -2.79640090578677E-16   6.52624358027787E-16   9.17309311879772E-02   9.17309311879772E-02
      0.00000000000000E+00   0.00000000000000E+00   2.76773433886217E-16   4.48433260670345E-20   2.76818277212284E-16
      8.83390520546447E-16  -5.00000000000000E-01  -5.00000000000000E-01   0.00000000000000E+00   0.00000000000000E+00
      0.00000000000000E+00   0.00000000000000E+00   0.00000000000000E+00  -3.97157686296458E-16
      1.09467378446821E-01
      0.00000000000000E+00   0.00000000000000E+00   0.00000000000000E+00   0.00000000000000E+00  -3.05224320866960E-16
     -9.13875484864586E-20  -3.05315708415446E-16   6.51845726015406E-16   1.09467378446821E-01   1.09467378446821E-01
      0.00000000000000E+00   0.00000000000000E+00   3.03269220728561E-16   4.66614253860815E-20   3.03315882153947E-16
      8.92789262642662E-16  -5.00000000000000E-01  -5.00000000000000E-01   0.00000000000000E+00   0.00000000000000E+00
      0.00000000000000E+00   0.00000000000000E+00   0.00000000000000E+00  -4.01025462108039E-16
      1.30278143230531E-01
      0.00000000000000E+00   0.00000000000000E+00   0.00000000000000E+00   0.00000000000000E+00  -3.23462449095130E-16
     -9.93041950263376E-20  -3.23561753290157E-16   6.51198103426954E-16   1.30278143230531E-01   1.30278143230531E-01
      0.00000000000000E+00   0.00000000000000E+00   3.25981517234043E-16   4.78158065321011E-20   3.26029333040575E-16
      9.03833834821626E-16  -5.00000000000000E-01  -5.00000000000000E-01   0.00000000000000E+00   0.00000000000000E+00
      0.00000000000000E+00   0.00000000000000E+00   0.00000000000000E+00  -4.05107860088598E-16
      1.54696107243417E-01
      0.00000000000000E+00   0.00000000000000E+00   0.00000000000000E+00   0.00000000000000E+00  -3.44312596033232E-16
     -1.06087250725732E-19  -3.44418683283957E-16   6.50669676392748E-16   1.54696107243417E-01   1.54696107243417E-01
      0.00000000000000E+00   0.00000000000000E+00   3.44158422807095E-16   4.84738974661340E-20   3.44206896704561E-16
      9.16639101230806E-16  -5.00000000000000E-01  -5.00000000000000E-01   0.00000000000000E+00   0.00000000000000E+00
      0.00000000000000E+00   0.00000000000000E+00   0.00000000000000E+00  -4.09500186708177E-16
      1.83346518351870E-01
      0.00000000000000E+00   0.00000000000000E+00   0.00000000000000E+00   0.00000000000000E+00  -3.57970248305272E-16
     -1.11870820543326E-19  -3.58082119125816E-16   6.50236733573136E-16   1.83346518351870E-01   1.83346518351870E-01
      0.00000000000000E+00   0.00000000000000E+00   3.58357482644473E-16   4.88234257501489E-20   3.58406306070223E-16
      9.31284458747060E-16  -5.00000000000000E-01  -5.00000000000000E-01   0.00000000000000E+00   0.00000000000000E+00
      0.00000000000000E+00   0.00000000000000E+00   0.00000000000000E+00  -4.14330104983655E-16
      2.16963000719122E-01
      0.00000000000000E+00   0.00000000000000E+00   0.00000000000000E+00   0.00000000000000E+00  -3.72224273865954E-16
     -1.16820172599381E-19  -3.72341094038554E-16   6.49878189518654E-16   2.16963000719122E-01   2.16963000719122E-01
      0.00000000000000E+00   0.00000000000000E+00   3.68499268465976E-16   4.90154875123596E-20   3.68548283953489E-16
      9.47849262382804E-16  -5.00000000000000E-01  -5.00000000000000E-01   0.00000000000000E+00   0.00000000000000E+00
      0.00000000000000E+00   0.00000000000000E+00   0.00000000000000E+00  -4.19734209572398E-16
      2.56406340030030E-01
      0.00000000000000E+00   0.00000000000000E+00   0.00000000000000E+00   0.00000000000000E+00  -3.79950360168243E-16
     -1.21023372697257E-19  -3.80071383540940E-16   6.49581828078735E-16   2.56406340030030E-01   2.56406340030030E-01
      0.00000000000000E+00   0.00000000000000E+00   3.79711296781234E-16   4.91440061182952E-20   3.79760440787352E-16
      9.66492193779237E-16  -5.00000000000000E-01  -5.00000000000000E-01   0.00000000000000E+00   0.00000000000000E+00
      0.00000000000000E+00   0.00000000000000E+00   0.00000000000000E+00  -4.25848169237604E-16
      3.02160613630684E-01
      0.00000000000000E+00   0.00000000000000E+00   0.00000000000000E+00   0.00000000000000E+00  -3.90832787344738E-16
     -1.24613204332029E-19  -3.90957400549070E-16   6.49334318527730E-16   3.02160613630684E-01   3.02160613630684E-01
      0.00000000000000E+00   0.00000000000000E+00   3.92832095779719E-16   4.92547717043591E-20   3.92881350551423E-16
      9.87296557467914E-16  -5.00000000000000E-01  -5.00000000000000E-01   0.00000000000000E+00   0.00000000000000E+00
      0.00000000000000E+00   0.00000000000000E+00   0.00000000000000E+00  -4.32748298212566E-16
      3.55845627988785E-01
      0.00000000000000E+00   0.00000000000000E+00   0.00000000000000E+00   0.00000000000000E+00  -3.98778616887089E-16
     -1.28110031508129E-19  -3.98906726918597E-16   6.49097972066241E-16   3.55845627988785E-01   3.55845627988785E-01
      0.00000000000000E+00   0.00000000000000E+00   3.97010310972471E-16   4.93689141016734E-20   3.97059679886572E-16
      1.01094322158755E-15  -5.00000000000000E-01  -5.00000000000000E-01   0.00000000000000E+00   0.00000000000000E+00
      0.00000000000000E+00   0.00000000000000E+00   0.00000000000000E+00  -4.40696976367168E-16
      4.18120244644182E-01
      0.00000000000000E+00   0.00000000000000E+00   0.00000000000000E+00   0.00000000000000E+00  -4.05766794877315E-16
     -1.32022622950774E-19  -4.05898817500265E-16   6.48838877958314E-16   4.18120244644182E-01   4.18120244644182E-01
      0.00000000000000E+00   0.00000000000000E+00   4.09493117937516E-16   4.94928381392277E-20   4.09542610775655E-16
      1.03766204998633E-15  -5.00000000000000E-01  -5.00000000000000E-01   0.00000000000000E+00   0.00000000000000E+00
      0.00000000000000E+00   0.00000000000000E+00   0.00000000000000E+00  -4.49781038245326E-16
      4.90358799964442E-01
      0.00000000000000E+00   0.00000000000000E+00   0.00000000000000E+00   0.00000000000000E+00  -4.15974040229957E-16
     -1.35350124829346E-19  -4.16109390354786E-16   6.48622737814239E-16   4.90358799964442E-01   4.90358799964442E-01
      0.00000000000000E+00   0.00000000000000E+00   4.17064670841572E-16   4.96300754462278E-20   4.17114300917019E-16
      1.06792460052017E-15  -5.00000000000000E-01  -5.00000000000000E-01   0.00000000000000E+00   0.00000000000000E+00
      0.00000000000000E+00   0.00000000000000E+00   0.00000000000000E+00  -4.59947448966247E-16
      5.74155524135944E-01
      0.00000000000000E+00   0.00000000000000E+00   0.00000000000000E+00   0.00000000000000E+00  -4.20443704316231E-16
     -1.37579174795429E-19  -4.20581283491026E-16   6.48479930140187E-16   5.74155524135944E-01   5.74155524135944E-01
      0.00000000000000E+00   0.00000000000000E+00   4.23998451396781E-16   4.97825068908877E-20   4.24048233903672E-16
      1.10194901475759E-15  -5.00000000000000E-01  -5.00000000000000E-01   0.00000000000000E+00   0.00000000000000E+00
      0.00000000000000E+00   0.00000000000000E+00   0.00000000000000E+00  -4.71043817685693E-16
      6.71359724174887E-01
      0.00000000000000E+00   0.00000000000000E+00   0.00000000000000E+00   0.00000000000000E+00  -4.33102005218858E-16
     -1.42392385365199E-19  -4.33244397604224E-16   6.48177500347268E-16   6.71359724174887E-01   6.71359724174887E-01
      0.00000000000000E+00   0.00000000000000E+00   4.33432257060462E-16   4.99500779281160E-20   4.33482207138390E-16
      1.13912331619192E-15  -5.00000000000000E-01  -5.00000000000000E-01   0.00000000000000E+00   0.00000000000000E+00
      0.00000000000000E+00   0.00000000000000E+00   0.00000000000000E+00  -4.82856497853127E-16
      7.84116596220060E-01
      0.00000000000000E+00   0.00000000000000E+00   0.00000000000000E+00   0.00000000000000E+00  -4.91410559164460E-16
     -1.67241090505758E-19  -4.91577800254965E-16   6.46727704250974E-16   7.84116596220060E-01   7.84116596220060E-01
      0.00000000000000E+00   0.00000000000000E+00   4.87402977172340E-16   5.01293540290975E-20   4.87453106526369E-16
      1.17722520014629E-15  -5.00000000000000E-01  -5.00000000000000E-01   0.00000000000000E+00   0.00000000000000E+00
      0.00000000000000E+00   0.00000000000000E+00   0.00000000000000E+00  -4.95514421076142E-16
      9.11907717871256E-01
      0.00000000000000E+00   0.00000000000000E+00   0.00000000000000E+00   0.00000000000000E+00  -6.00070960918726E-16
     -2.18749625320444E-19  -6.00289710544047E-16   6.44183115871024E-16   9.11907717871256E-01   9.11907717871256E-01
      0.00000000000000E+00   0.00000000000000E+00   5.96764382292027E-16   5.03166018464098E-20   5.96814698893873E-16
      1.21572288364987E-15  -5.00000000000000E-01  -5.00000000000000E-01   0.00000000000000E+00   0.00000000000000E+00
      0.00000000000000E+00   0.00000000000000E+00   0.00000000000000E+00  -5.08592948151985E-16
      1.00000000000000E+00
      0.00000000000000E+00   0.00000000000000E+00   0.00000000000000E+00   0.00000000000000E+00  -6.29622456198183E-16
     -2.35027000952503E-19  -6.29857483199135E-16   6.43478396765653E-16   1.00000000000000E+00   1.00000000000000E+00
      0.00000000000000E+00   0.00000000000000E+00   6.31154954797033E-16   5.04414657038966E-20   6.31205396262737E-16
      1.24203283851137E-15  -5.00000000000000E-01  -5.00000000000000E-01   0.00000000000000E+00   0.00000000000000E+00
      0.00000000000000E+00   0.00000000000000E+00   0.00000000000000E+00  -5.15432643560101E-16
      0.00000000000000E+00
      0.00000000000000E+00   0.00000000000000E+00   0.00000000000000E+00   0.00000000000000E+00  -6.29058926272717E-16
     -2.35027056456836E-19  -6.29293953329173E-16   6.43478394432146E-16   1.00000000000000E+00   1.00000000000000E+00
      0.00000000000000E+00   0.00000000000000E+00   6.32700074515287E-16   5.04414656967950E-20   6.32750515980984E-16
      1.24203283730571E-15  -5.00000000000000E-01  -5.00000000000000E-01   0.00000000000000E+00   0.00000000000000E+00
      0.00000000000000E+00   0.00000000000000E+00   0.00000000000000E+00  -5.15432647457510E-16
      1.00000000000000E-03
      0.00000000000000E+00   0.00000000000000E+00   0.00000000000000E+00   0.00000000000000E+00  -6.29877810873442E-16
     -2.35000128530965E-19  -6.30112811001973E-16   6.43403268811477E-16   1.00000000000000E+00   1.00000000000000E+00
      0.00000000000000E+00   0.00000000000000E+00   6.27549162965289E-16   5.04414497656707E-20   6.27599604415055E-16
      1.24190533494371E-15  -4.98000000000000E-01  -4.98000000000000E-01   0.00000000000000E+00   0.00000000000000E+00
      0.00000000000000E+00   0.00000000000000E+00   0.00000000000000E+00  -5.13695157377389E-16
      2.17333333333333E-03
      0.00000000000000E+00   0.00000000000000E+00   0.00000000000000E+00   0.00000000000000E+00  -6.32100812957672E-16
     -2.34968309437018E-19  -6.32335781267110E-16   6.43314920800634E-16   1.00000000000000E+00   1.00000000000000E+00
      0.00000000000000E+00   0.00000000000000E+00   6.28372643774231E-16   5.04414310524785E-20   6.28423085205283E-16
      1.24175554517302E-15  -4.95653333333333E-01  -4.95653333333333E-01   0.00000000000000E+00   0.00000000000000E+00
      0.00000000000000E+00   0.00000000000000E+00   0.00000000000000E+00  -5.11660634797715E-16
      3.56568888888889E-03
      0.00000000000000E+00   0.00000000000000E+00   0.00000000000000E+00   0.00000000000000E+00  -6.30090897444031E-16
     -2.34930233080728E-19  -6.30325827677111E-16   6.43209800067285E-16   1.00000000000000E+00   1.00000000000000E+00
      0.00000000000000E+00   0.00000000000000E+00   6.33831557212106E-16   5.04414088167879E-20   6.33881998620923E-16
      1.24157752818372E-15  -4.92868622222222E-01  -4.92868622222222E-01   0.00000000000000E+00   0.00000000000000E+00
      0.00000000000000E+00   0.00000000000000E+00   0.00000000000000E+00  -5.09252209909433E-16
      5.21795081481481E-03
      0.00000000000000E+00   0.00000000000000E+00   0.00000000000000E+00   0.00000000000000E+00  -6.31736742599669E-16
     -2.34884577831618E-19  -6.31971627177500E-16   6.43084661343517E-16   1.00000000000000E+00   1.00000000000000E+00
      0.00000000000000E+00   0.00000000000000E+00   6.30328351260564E-16   5.04413823905273E-20   6.30378792642954E-16
      1.24136589893479E-15  -4.89564098370370E-01  -4.89564098370370E-01   0.00000000000000E+00   0.00000000000000E+00
      0.00000000000000E+00   0.00000000000000E+00   0.00000000000000E+00  -5.06402629762954E-16
      7.17863496691358E-03
      0.00000000000000E+00   0.00000000000000E+00   0.00000000000000E+00   0.00000000000000E+00  -6.28583206548749E-16
     -2.34829685548315E-19  -6.28818036234297E-16   6.42935607141886E-16   1.00000000000000E+00   1.00000000000000E+00
      0.00000000000000E+00   0.00000000000000E+00   6.28782153812947E-16   5.04413509790091E-20   6.28832595163925E-16
      1.24111421513728E-15  -4.85642730066173E-01  -4.85642730066173E-01   0.00000000000000E+00   0.00000000000000E+00
      0.00000000000000E+00   0.00000000000000E+00   0.00000000000000E+00  -5.03033224262972E-16
      9.50531349407078E-03
      0.00000000000000E+00   0.00000000000000E+00   0.00000000000000E+00   0.00000000000000E+00  -6.28236393495197E-16
     -2.34763460876774E-19  -6.28471156956074E-16   6.42757946030261E-16   1.00000000000000E+00   1.00000000000000E+00
      0.00000000000000E+00   0.00000000000000E+00   6.27956827427347E-16   5.04413136359720E-20   6.28007268740983E-16
      1.24081475505455E-15  -4.80989373011858E-01  -4.80989373011858E-01   0.00000000000000E+00   0.00000000000000E+00
      0.00000000000000E+00   0.00000000000000E+00   0.00000000000000E+00  -4.99052309197217E-16
      1.22663053462973E-02
      0.00000000000000E+00   0.00000000000000E+00   0.00000000000000E+00   0.00000000000000E+00  -6.31820816387038E-16
     -2.34683220789268E-19  -6.32055499607827E-16   6.42546015753092E-16   1.00000000000000E+00   1.00000000000000E+00
      0.00000000000000E+00   0.00000000000000E+00   6.27543304949983E-16   5.04412692349788E-20   6.27593746219218E-16
      1.24045824156919E-15  -4.75467389307405E-01  -4.75467389307405E-01   0.00000000000000E+00   0.00000000000000E+00
      0.00000000000000E+00   0.00000000000000E+00   0.00000000000000E+00  -4.94353556887642E-16
      1.55426823442728E-02
      0.00000000000000E+00   0.00000000000000E+00   0.00000000000000E+00   0.00000000000000E+00  -6.29752497470783E-16
     -2.34585473252939E-19  -6.29987082944036E-16   6.42292959774938E-16   1.00000000000000E+00   1.00000000000000E+00
      0.00000000000000E+00   0.00000000000000E+00   6.29602064698171E-16   5.04412164365960E-20   6.29652505914608E-16
      1.24003349590105E-15  -4.68914635311454E-01  -4.68914635311454E-01   0.00000000000000E+00   0.00000000000000E+00
      0.00000000000000E+00   0.00000000000000E+00   0.00000000000000E+00  -4.88814469721668E-16
      1.94306497152037E-02
      0.00000000000000E+00   0.00000000000000E+00   0.00000000000000E+00   0.00000000000000E+00  -6.30762160697266E-16
     -2.34465601073237E-19  -6.30996626298340E-16   6.41990440125202E-16   1.00000000000000E+00   1.00000000000000E+00
      0.00000000000000E+00   0.00000000000000E+00   6.28363726351082E-16   5.04411536499423E-20   6.28414167504732E-16
      1.23952699760747E-15  -4.61138700569592E-01  -4.61138700569592E-01   0.00000000000000E+00   0.00000000000000E+00
      0.00000000000000E+00   0.00000000000000E+00   0.00000000000000E+00  -4.82295195001172E-16
      2.40443709953751E-02
      0.00000000000000E+00   0.00000000000000E+00   0.00000000000000E+00   0.00000000000000E+00  -6.31462503458427E-16
     -2.34317403365983E-19  -6.31696820861793E-16   6.41628260715944E-16   1.00000000000000E+00   1.00000000000000E+00
      0.00000000000000E+00   0.00000000000000E+00   6.30421954829156E-16   5.04410789887649E-20   6.30472395908144E-16
      1.23892231825381E-15  -4.51911258009250E-01  -4.51911258009250E-01   0.00000000000000E+00   0.00000000000000E+00
      0.00000000000000E+00   0.00000000000000E+00   0.00000000000000E+00  -4.74638080818805E-16
      2.95193202478451E-02
      0.00000000000000E+00   0.00000000000000E+00   0.00000000000000E+00   0.00000000000000E+00  -6.30154670520348E-16
     -2.34132398049258E-19  -6.30388802918398E-16   6.41193860574524E-16   1.00000000000000E+00   1.00000000000000E+00
      0.00000000000000E+00   0.00000000000000E+00   6.29285672972665E-16   5.04409902271243E-20   6.29336113962892E-16
      1.23819938359166E-15  -4.40961359504310E-01  -4.40961359504310E-01   0.00000000000000E+00   0.00000000000000E+00
      0.00000000000000E+00   0.00000000000000E+00   0.00000000000000E+00  -4.65668618411603E-16
      3.60162600274429E-02
      0.00000000000000E+00   0.00000000000000E+00   0.00000000000000E+00   0.00000000000000E+00  -6.30208421696961E-16
     -2.33898808169227E-19  -6.30442320505130E-16   6.40671605729196E-16   1.00000000000000E+00   1.00000000000000E+00
      0.00000000000000E+00   0.00000000000000E+00   6.32785799278396E-16   5.04408847571529E-20   6.32836240163153E-16
      1.23733350006767E-15  -4.27967479945114E-01  -4.27967479945114E-01   0.00000000000000E+00   0.00000000000000E+00
      0.00000000000000E+00   0.00000000000000E+00   0.00000000000000E+00  -4.55198789293662E-16
      4.37259618992322E-02
      0.00000000000000E+00   0.00000000000000E+00   0.00000000000000E+00   0.00000000000000E+00  -6.31327473024226E-16
     -2.33600034470780E-19  -6.31561073058697E-16   6.40041759690753E-16   1.00000000000000E+00   1.00000000000000E+00
      0.00000000000000E+00   0.00000000000000E+00   6.32163453290449E-16   5.04407595703830E-20   6.32213894050020E-16
      1.23629405659420E-15  -4.12548076201536E-01  -4.12548076201536E-01   0.00000000000000E+00   0.00000000000000E+00
      0.00000000000000E+00   0.00000000000000E+00   0.00000000000000E+00  -4.43034400920850E-16
      5.28748081204222E-02
      0.00000000000000E+00   0.00000000000000E+00   0.00000000000000E+00   0.00000000000000E+00  -6.32920068201149E-16
     -2.33212598124904E-19  -6.33153280799274E-16   6.39278909841357E-16   1.00000000000000E+00   1.00000000000000E+00