DF-ISE text

Info {
  version   = 1.0
  type      = xyplot
  datasets  = [
    "time"
    "S OuterVoltage" "S InnerVoltage" "S QuasiFermiPotential" "S DisplacementCurrent" "S eCurrent"
    "S hCurrent" "S TotalCurrent" "S Charge" "D OuterVoltage" "D InnerVoltage"
    "D QuasiFermiPotential" "D DisplacementCurrent" "D eCurrent" "D hCurrent" "D TotalCurrent"
    "D Charge" "G OuterVoltage" "G InnerVoltage" "G QuasiFermiPotential" "G DisplacementCurrent"
    "G eCurrent" "G hCurrent" "G TotalCurrent" "G Charge" ]
  functions = [
    Time
    OuterVoltage InnerVoltage QuasiFermiPotential DisplacementCurrent eCurrent
    hCurrent TotalCurrent Charge OuterVoltage InnerVoltage
    QuasiFermiPotential DisplacementCurrent eCurrent hCurrent TotalCurrent
    Charge OuterVoltage InnerVoltage QuasiFermiPotential DisplacementCurrent
    eCurrent hCurrent TotalCurrent Charge ]
}

Data {
      0.00000000000000E+00
      0.00000000000000E+00   0.00000000000000E+00   0.00000000000000E+00   0.00000000000000E+00   2.10355339812837E-26
     -5.09149110969133E-34   2.10355334721346E-26   6.36487763353794E-16   0.00000000000000E+00   0.00000000000000E+00
      0.00000000000000E+00   0.00000000000000E+00  -2.88324451555141E-19  -4.54735917594479E-34  -2.88324451555141E-19
      8.10200484864672E-16  -5.00000000000000E-01  -5.00000000000000E-01   0.00000000000000E+00   0.00000000000000E+00
      0.00000000000000E+00   0.00000000000000E+00   0.00000000000000E+00  -3.64668666779233E-16
      0.00000000000000E+00
      0.00000000000000E+00   0.00000000000000E+00   0.00000000000000E+00   0.00000000000000E+00   1.73593063535917E-18
      1.50639447445627E-34   1.73593063535917E-18   6.36487763353793E-16   0.00000000000000E+00   0.00000000000000E+00
      0.00000000000000E+00   0.00000000000000E+00  -2.01827277957514E-18   7.81136206524385E-35  -2.01827277957514E-18
      8.10200484864669E-16  -5.00000000000000E-01  -5.00000000000000E-01   0.00000000000000E+00   0.00000000000000E+00
      0.00000000000000E+00   0.00000000000000E+00   0.00000000000000E+00  -3.64668666779236E-16
      1.00000000000000E-03
      0.00000000000000E+00   0.00000000000000E+00   0.00000000000000E+00   0.00000000000000E+00  -1.58197795747735E-18
     -9.39183209587850E-22  -1.58291714068693E-18   6.36299366853532E-16   1.00000000000000E-03   1.00000000000000E-03
      0.00000000000000E+00   0.00000000000000E+00   5.58921263376459E-18   9.07565863290903E-22   5.59012019962788E-18
      8.10542495105698E-16  -5.00000000000000E-01  -5.00000000000000E-01   0.00000000000000E+00   0.00000000000000E+00
      0.00000000000000E+00   0.00000000000000E+00   0.00000000000000E+00  -3.65192286276332E-16
      2.17333333333333E-03
      0.00000000000000E+00   0.00000000000000E+00   0.00000000000000E+00   0.00000000000000E+00  -7.15315232847541E-18
     -2.05267942587802E-21  -7.15520500790129E-18   6.36080609913892E-16   2.17333333333333E-03   2.17333333333333E-03
      0.00000000000000E+00   0.00000000000000E+00   5.63039416654307E-18   1.96164340307735E-21   5.63235580994614E-18
      8.10946205037840E-16  -5.00000000000000E-01  -5.00000000000000E-01   0.00000000000000E+00   0.00000000000000E+00
      0.00000000000000E+00   0.00000000000000E+00   0.00000000000000E+00  -3.65802251904243E-16
      3.56568888888889E-03
      0.00000000000000E+00   0.00000000000000E+00   0.00000000000000E+00   0.00000000000000E+00  -1.12750610374314E-17
     -3.38977759652232E-21  -1.12784508150279E-17   6.35824234479177E-16   3.56568888888889E-03   3.56568888888889E-03
      0.00000000000000E+00   0.00000000000000E+00   1.17083063790271E-17   3.19698883055364E-21   1.17115033678576E-17
      8.11428661399066E-16  -5.00000000000000E-01  -5.00000000000000E-01   0.00000000000000E+00   0.00000000000000E+00
      0.00000000000000E+00   0.00000000000000E+00   0.00000000000000E+00  -3.66519879499624E-16
      5.21795081481481E-03
      0.00000000000000E+00   0.00000000000000E+00   0.00000000000000E+00   0.00000000000000E+00  -1.71863173941511E-17
     -4.99796675483249E-21  -1.71913153609060E-17   6.35524530862423E-16   5.21795081481481E-03   5.21795081481481E-03
      0.00000000000000E+00   0.00000000000000E+00   1.55147439824880E-17   4.64053661302381E-21   1.55193845191011E-17
      8.12005943753512E-16  -5.00000000000000E-01  -5.00000000000000E-01   0.00000000000000E+00   0.00000000000000E+00
      0.00000000000000E+00   0.00000000000000E+00   0.00000000000000E+00  -3.67362717693719E-16
      7.17863496691358E-03
      0.00000000000000E+00   0.00000000000000E+00   0.00000000000000E+00   0.00000000000000E+00  -2.32131785950724E-17
     -6.93544467364514E-21  -2.32201140397461E-17   6.35175253951156E-16   7.17863496691358E-03   7.17863496691358E-03
      0.00000000000000E+00   0.00000000000000E+00   2.31541553820303E-17   6.32109821229274E-21   2.31604764802426E-17
      8.12697689577057E-16  -5.00000000000000E-01  -5.00000000000000E-01   0.00000000000000E+00   0.00000000000000E+00
      0.00000000000000E+00   0.00000000000000E+00   0.00000000000000E+00  -3.68350549592972E-16
      9.50531349407078E-03
      0.00000000000000E+00   0.00000000000000E+00   0.00000000000000E+00   0.00000000000000E+00  -3.02994587868331E-17
     -9.27348788982077E-21  -3.03087322747229E-17   6.34769732229507E-16   9.50531349407078E-03   9.50531349407078E-03
      0.00000000000000E+00   0.00000000000000E+00   2.92207068186004E-17   8.26826619894848E-21   2.92289750847993E-17
      8.13527976647430E-16  -5.00000000000000E-01  -5.00000000000000E-01   0.00000000000000E+00   0.00000000000000E+00
      0.00000000000000E+00   0.00000000000000E+00   0.00000000000000E+00  -3.69505392932563E-16
      1.22663053462973E-02
      0.00000000000000E+00   0.00000000000000E+00   0.00000000000000E+00   0.00000000000000E+00  -4.11441392068521E-17
     -1.20991433097255E-20  -4.11562383501618E-17   6.34301070937716E-16   1.22663053462973E-02   1.22663053462973E-02
      0.00000000000000E+00   0.00000000000000E+00   3.98275196452382E-17   1.05104719668929E-20   3.98380301172051E-17
      8.14526446478831E-16  -5.00000000000000E-01  -5.00000000000000E-01   0.00000000000000E+00   0.00000000000000E+00
      0.00000000000000E+00   0.00000000000000E+00   0.00000000000000E+00  -3.70851349352954E-16
      1.55426823442728E-02
      0.00000000000000E+00   0.00000000000000E+00   0.00000000000000E+00   0.00000000000000E+00  -5.00435959884015E-17
     -1.55180291691300E-20  -5.00591140175706E-17   6.33762490772045E-16   1.55426823442728E-02   1.55426823442728E-02
      0.00000000000000E+00   0.00000000000000E+00   4.84425855798217E-17   1.30718332876827E-20   4.84556574131094E-17
      8.15729737921521E-16  -5.00000000000000E-01  -5.00000000000000E-01   0.00000000000000E+00   0.00000000000000E+00
      0.00000000000000E+00   0.00000000000000E+00   0.00000000000000E+00  -3.72414223995496E-16
      1.94306497152037E-02
      0.00000000000000E+00   0.00000000000000E+00   0.00000000000000E+00   0.00000000000000E+00  -6.03008275846254E-17
     -1.96568394880538E-20  -6.03204844241134E-17   6.33147838270467E-16   1.94306497152037E-02   1.94306497152037E-02
      0.00000000000000E+00   0.00000000000000E+00   6.26173600338121E-17   1.59673170446328E-20   6.26333273508567E-17
      8.17183298644363E-16  -5.00000000000000E-01  -5.00000000000000E-01   0.00000000000000E+00   0.00000000000000E+00
      0.00000000000000E+00   0.00000000000000E+00   0.00000000000000E+00  -3.74220846544045E-16
      2.40443709953751E-02
      0.00000000000000E+00   0.00000000000000E+00   0.00000000000000E+00   0.00000000000000E+00  -7.66870146485524E-17
     -2.46646550648356E-20  -7.67116793036172E-17   6.32452312554480E-16   2.40443709953751E-02   2.40443709953751E-02
      0.00000000000000E+00   0.00000000000000E+00   7.58356222001034E-17   1.91958246381806E-20   7.58548180247416E-17
      8.18943655734082E-16  -5.00000000000000E-01  -5.00000000000000E-01   0.00000000000000E+00   0.00000000000000E+00
      0.00000000000000E+00   0.00000000000000E+00   0.00000000000000E+00  -3.76298006944953E-16
      2.95193202478451E-02
      0.00000000000000E+00   0.00000000000000E+00   0.00000000000000E+00   0.00000000000000E+00  -9.17715935259036E-17
     -3.07116413854596E-20  -9.18023051672890E-17   6.31673416996601E-16   2.95193202478451E-02   2.95193202478451E-02
      0.00000000000000E+00   0.00000000000000E+00   9.19045661150525E-17   2.27310509198823E-20   9.19272971659724E-17
      8.21081193544575E-16  -5.00000000000000E-01  -5.00000000000000E-01   0.00000000000000E+00   0.00000000000000E+00
      0.00000000000000E+00   0.00000000000000E+00   0.00000000000000E+00  -3.78670991314051E-16
      3.60162600274429E-02
      0.00000000000000E+00   0.00000000000000E+00   0.00000000000000E+00   0.00000000000000E+00  -1.12368762318446E-16
     -3.79831128410427E-20  -1.12406745431287E-16   6.30812079341365E-16   3.60162600274429E-02   3.60162600274429E-02
      0.00000000000000E+00   0.00000000000000E+00   1.13732545848091E-16   2.65107862235060E-20   1.13759056634314E-16
      8.23683423744592E-16  -5.00000000000000E-01  -5.00000000000000E-01   0.00000000000000E+00   0.00000000000000E+00
      0.00000000000000E+00   0.00000000000000E+00   0.00000000000000E+00  -3.81361836401523E-16
      4.37259618992322E-02
      0.00000000000000E+00   0.00000000000000E+00   0.00000000000000E+00   0.00000000000000E+00  -1.34785444428028E-16
     -4.66667168940084E-20  -1.34832111144922E-16   6.29873768803046E-16   4.37259618992322E-02   4.37259618992322E-02
      0.00000000000000E+00   0.00000000000000E+00   1.36768485306629E-16   3.04270105234775E-20   1.36798912317153E-16
      8.26858617309403E-16  -5.00000000000000E-01  -5.00000000000000E-01   0.00000000000000E+00   0.00000000000000E+00
      0.00000000000000E+00   0.00000000000000E+00   0.00000000000000E+00  -3.84387659462900E-16
      5.28748081204222E-02
      0.00000000000000E+00   0.00000000000000E+00   0.00000000000000E+00   0.00000000000000E+00  -1.60266918120210E-16
     -5.69320038102573E-20  -1.60323850124020E-16   6.28869232768397E-16   5.28748081204222E-02   5.28748081204222E-02
      0.00000000000000E+00   0.00000000000000E+00   1.59843004273866E-16   3.43216350459383E-20   1.59877325908912E-16
      8.30739458718108E-16  -5.00000000000000E-01  -5.00000000000000E-01   0.00000000000000E+00   0.00000000000000E+00
      0.00000000000000E+00   0.00000000000000E+00   0.00000000000000E+00  -3.87759850601865E-16
      6.37314389695677E-02
      0.00000000000000E+00   0.00000000000000E+00   0.00000000000000E+00   0.00000000000000E+00  -1.93821325092011E-16
     -6.89060082753971E-20  -1.93890231100286E-16   6.27814284500475E-16   6.37314389695677E-02   6.37314389695677E-02
      0.00000000000000E+00   0.00000000000000E+00   1.83442213056684E-16   3.79953050601769E-20   1.83480208361744E-16
      8.35486191287751E-16  -5.00000000000000E-01  -5.00000000000000E-01   0.00000000000000E+00   0.00000000000000E+00
      0.00000000000000E+00   0.00000000000000E+00   0.00000000000000E+00  -3.91485324415355E-16
      7.66146409105537E-02
      0.00000000000000E+00   0.00000000000000E+00   0.00000000000000E+00   0.00000000000000E+00  -2.16127321483024E-16
     -8.26551814611765E-20  -2.16209976664485E-16   6.26728115030688E-16   7.66146409105537E-02   7.66146409105537E-02
      0.00000000000000E+00   0.00000000000000E+00   2.19094060715680E-16   4.12364086723529E-20   2.19135297124352E-16
      8.41288779874455E-16  -5.00000000000000E-01  -5.00000000000000E-01   0.00000000000000E+00   0.00000000000000E+00
      0.00000000000000E+00   0.00000000000000E+00   0.00000000000000E+00  -3.95570965865556E-16
      9.17309311879772E-02
      0.00000000000000E+00   0.00000000000000E+00   0.00000000000000E+00   0.00000000000000E+00  -2.49732582558477E-16
     -9.80194565422105E-20  -2.49830602015020E-16   6.25641421302441E-16   9.17309311879772E-02   9.17309311879772E-02
      0.00000000000000E+00   0.00000000000000E+00   2.49682903539898E-16   4.38462624746428E-20   2.49726749802373E-16
      8.48287589019738E-16  -5.00000000000000E-01  -5.00000000000000E-01   0.00000000000000E+00   0.00000000000000E+00
      0.00000000000000E+00   0.00000000000000E+00   0.00000000000000E+00  -3.99983350205094E-16
      1.09467378446821E-01
      0.00000000000000E+00   0.00000000000000E+00   0.00000000000000E+00   0.00000000000000E+00  -2.83283029322373E-16
     -1.14953987899269E-19  -2.83397983310272E-16   6.24568244189931E-16   1.09467378446821E-01   1.09467378446821E-01
      0.00000000000000E+00   0.00000000000000E+00   2.82693766767053E-16   4.57641776918331E-20   2.82739530944745E-16
      8.56701175924410E-16  -5.00000000000000E-01  -5.00000000000000E-01   0.00000000000000E+00   0.00000000000000E+00
      0.00000000000000E+00   0.00000000000000E+00   0.00000000000000E+00  -4.04748683689608E-16
      1.30278143230531E-01
      0.00000000000000E+00   0.00000000000000E+00   0.00000000000000E+00   0.00000000000000E+00  -3.18420455933724E-16
     -1.33406060459579E-19  -3.18553861994183E-16   6.23518454420584E-16   1.30278143230531E-01   1.30278143230531E-01
      0.00000000000000E+00   0.00000000000000E+00   3.18487912107729E-16   4.70389461465916E-20   3.18534951053875E-16
      8.66777464535547E-16  -5.00000000000000E-01  -5.00000000000000E-01   0.00000000000000E+00   0.00000000000000E+00
      0.00000000000000E+00   0.00000000000000E+00   0.00000000000000E+00  -4.09910822915543E-16
      1.54696107243417E-01
      0.00000000000000E+00   0.00000000000000E+00   0.00000000000000E+00   0.00000000000000E+00  -3.56189793965426E-16
     -1.53279780900713E-19  -3.56343073746326E-16   6.22500442121576E-16   1.54696107243417E-01   1.54696107243417E-01
      0.00000000000000E+00   0.00000000000000E+00   3.56821068349112E-16   4.78073757249425E-20   3.56868875724837E-16
      8.78801729875785E-16  -5.00000000000000E-01  -5.00000000000000E-01   0.00000000000000E+00   0.00000000000000E+00
      0.00000000000000E+00   0.00000000000000E+00   0.00000000000000E+00  -4.15527195735724E-16
      1.83346518351870E-01
      0.00000000000000E+00   0.00000000000000E+00   0.00000000000000E+00   0.00000000000000E+00  -3.89329272073947E-16
     -1.74385115059776E-19  -3.89503657189007E-16   6.21523369709453E-16   1.83346518351870E-01   1.83346518351870E-01
      0.00000000000000E+00   0.00000000000000E+00   3.90036277763339E-16   4.82424441589111E-20   3.90084520207498E-16
      8.93104633543626E-16  -5.00000000000000E-01  -5.00000000000000E-01   0.00000000000000E+00   0.00000000000000E+00
      0.00000000000000E+00   0.00000000000000E+00   0.00000000000000E+00  -4.21665568824514E-16
      2.16963000719122E-01
      0.00000000000000E+00   0.00000000000000E+00   0.00000000000000E+00   0.00000000000000E+00  -4.28212791264633E-16
     -1.96426646515728E-19  -4.28409217911149E-16   6.20596771144380E-16   2.16963000719122E-01   2.16963000719122E-01
      0.00000000000000E+00   0.00000000000000E+00   4.28112766650989E-16   4.84998551605742E-20   4.28161266506149E-16
      9.10067835496843E-16  -5.00000000000000E-01  -5.00000000000000E-01   0.00000000000000E+00   0.00000000000000E+00
      0.00000000000000E+00   0.00000000000000E+00   0.00000000000000E+00  -4.28406017935833E-16
      2.56406340030030E-01
      0.00000000000000E+00   0.00000000000000E+00   0.00000000000000E+00   0.00000000000000E+00  -4.64749323165797E-16
     -2.18808320166353E-19  -4.64968131485963E-16   6.19737187087126E-16   2.56406340030030E-01   2.56406340030030E-01
      0.00000000000000E+00   0.00000000000000E+00   4.62164508986176E-16   4.86875837701421E-20   4.62213196569946E-16
      9.30136639501545E-16  -5.00000000000000E-01  -5.00000000000000E-01   0.00000000000000E+00   0.00000000000000E+00
      0.00000000000000E+00   0.00000000000000E+00   0.00000000000000E+00  -4.35827905896477E-16
      3.02686524821497E-01
      0.00000000000000E+00   0.00000000000000E+00   0.00000000000000E+00   0.00000000000000E+00  -4.94713598353181E-16
     -2.40077719698311E-19  -4.94953676072879E-16   6.18984222386321E-16   3.02686524821497E-01   3.02686524821497E-01
      0.00000000000000E+00   0.00000000000000E+00   4.94936507251906E-16   4.88640774472947E-20   4.94985371329353E-16
      9.53840562125131E-16  -5.00000000000000E-01  -5.00000000000000E-01   0.00000000000000E+00   0.00000000000000E+00
      0.00000000000000E+00   0.00000000000000E+00   0.00000000000000E+00  -4.43976197032758E-16
      3.56988608310150E-01
      0.00000000000000E+00   0.00000000000000E+00   0.00000000000000E+00   0.00000000000000E+00  -5.23298496385772E-16
     -2.58561870549042E-19  -5.23557058256321E-16   6.18373309120999E-16   3.56988608310150E-01   3.56988608310150E-01
      0.00000000000000E+00   0.00000000000000E+00   5.23607635402100E-16   4.90538003470085E-20   5.23656689202447E-16
      9.81764663264767E-16  -5.00000000000000E-01  -5.00000000000000E-01   0.00000000000000E+00   0.00000000000000E+00
      0.00000000000000E+00   0.00000000000000E+00   0.00000000000000E+00  -4.52912621487321E-16
      4.19979025156988E-01
      0.00000000000000E+00   0.00000000000000E+00   0.00000000000000E+00   0.00000000000000E+00  -5.47531349100869E-16
     -2.74453138018325E-19  -5.47805802238887E-16   6.17876511172116E-16   4.19979025156988E-01   4.19979025156988E-01
      0.00000000000000E+00   0.00000000000000E+00   5.44322488585811E-16   4.92617629245341E-20   5.44371750348736E-16
      1.01409967624476E-15  -5.00000000000000E-01  -5.00000000000000E-01   0.00000000000000E+00   0.00000000000000E+00
      0.00000000000000E+00   0.00000000000000E+00   0.00000000000000E+00  -4.62721294418035E-16
      4.93047908699321E-01
      0.00000000000000E+00   0.00000000000000E+00   0.00000000000000E+00   0.00000000000000E+00  -5.63475817393250E-16
     -2.87916763006489E-19  -5.63763734156256E-16   6.17474084505154E-16   4.93047908699321E-01   4.93047908699321E-01
      0.00000000000000E+00   0.00000000000000E+00   5.68073012661938E-16   4.94892200521400E-20   5.68122501881990E-16
      1.05130479931088E-15  -5.00000000000000E-01  -5.00000000000000E-01   0.00000000000000E+00   0.00000000000000E+00
      0.00000000000000E+00   0.00000000000000E+00   0.00000000000000E+00  -4.73496874931222E-16
      5.77807813608426E-01
      0.00000000000000E+00   0.00000000000000E+00   0.00000000000000E+00   0.00000000000000E+00  -5.79639500759405E-16
     -2.97767673228742E-19  -5.79937268432634E-16   6.17189360434538E-16   5.77807813608426E-01   5.77807813608426E-01
      0.00000000000000E+00   0.00000000000000E+00   5.80763445672761E-16   4.97360312765898E-20   5.80813181704038E-16
      1.09370061491778E-15  -5.00000000000000E-01  -5.00000000000000E-01   0.00000000000000E+00   0.00000000000000E+00
      0.00000000000000E+00   0.00000000000000E+00   0.00000000000000E+00  -4.85085111876687E-16
      6.76129303302988E-01
      0.00000000000000E+00   0.00000000000000E+00   0.00000000000000E+00   0.00000000000000E+00  -5.92971087358995E-16
     -3.06534678603897E-19  -5.93277622037599E-16   6.16942424478379E-16   6.76129303302988E-01   6.76129303302988E-01
      0.00000000000000E+00   0.00000000000000E+00   5.91560793584167E-16   5.00000568281438E-20   5.91610793640995E-16
      1.14082468680891E-15  -5.00000000000000E-01  -5.00000000000000E-01   0.00000000000000E+00   0.00000000000000E+00
      0.00000000000000E+00   0.00000000000000E+00   0.00000000000000E+00  -4.97028140025193E-16
      7.87560324956826E-01
      0.00000000000000E+00   0.00000000000000E+00   0.00000000000000E+00   0.00000000000000E+00  -6.00169156640000E-16
     -3.13192195069381E-19  -6.00482348835069E-16   6.16758623844830E-16   7.87560324956826E-01   7.87560324956826E-01
      0.00000000000000E+00   0.00000000000000E+00   6.01795926314417E-16   5.02727586660624E-20   6.01846199073083E-16
      1.18987526453562E-15  -5.00000000000000E-01  -5.00000000000000E-01   0.00000000000000E+00   0.00000000000000E+00
      0.00000000000000E+00   0.00000000000000E+00   0.00000000000000E+00  -5.07477746138862E-16
      9.12363069209124E-01
      0.00000000000000E+00   0.00000000000000E+00   0.00000000000000E+00   0.00000000000000E+00  -6.04966229688546E-16
     -3.17025843739720E-19  -6.05283255532285E-16   6.16653819742024E-16   9.12363069209124E-01   9.12363069209124E-01
      0.00000000000000E+00   0.00000000000000E+00   6.06258545410206E-16   5.05477238288593E-20   6.06309093134035E-16
      1.24044644779535E-15  -5.00000000000000E-01  -5.00000000000000E-01   0.00000000000000E+00   0.00000000000000E+00
      0.00000000000000E+00   0.00000000000000E+00   0.00000000000000E+00  -5.16203203699347E-16
      1.00000000000000E+00
      0.00000000000000E+00   0.00000000000000E+00   0.00000000000000E+00   0.00000000000000E+00  -6.09295189335641E-16
     -3.18713037957590E-19  -6.09613902373599E-16   6.16607732791751E-16   1.00000000000000E+00   1.00000000000000E+00
      0.00000000000000E+00   0.00000000000000E+00   6.10396346843754E-16   5.07225889245582E-20   6.10447069432678E-16
      1.27489509366263E-15  -5.00000000000000E-01  -5.00000000000000E-01   0.00000000000000E+00   0.00000000000000E+00
      0.00000000000000E+00   0.00000000000000E+00   0.00000000000000E+00  -5.21839083246343E-16
      0.00000000000000E+00
      0.00000000000000E+00   0.00000000000000E+00   0.00000000000000E+00   0.00000000000000E+00  -6.06325828718975E-16
     -3.18712863925161E-19  -6.06644541582900E-16   6.16607737456635E-16   1.00000000000000E+00   1.00000000000000E+00
      0.00000000000000E+00   0.00000000000000E+00   6.04922920730738E-16   5.07225889480926E-20   6.04973643319686E-16
      1.27489509769312E-15  -5.00000000000000E-01  -5.00000000000000E-01   0.00000000000000E+00   0.00000000000000E+00
      0.00000000000000E+00   0.00000000000000E+00   0.00000000000000E+00  -5.21839073748694E-16
      1.00000000000000E-03
      0.00000000000000E+00   0.00000000000000E+00   0.00000000000000E+00   0.00000000000000E+00  -6.06876962254168E-16
     -3.18652023634552E-19  -6.07195614277803E-16   6.16531010479939E-16   1.00000000000000E+00   1.00000000000000E+00
      0.00000000000000E+00   0.00000000000000E+00   6.08603096830054E-16   5.07225916402471E-20   6.08653819421694E-16
      1.27477060707765E-15  -4.98000000000000E-01  -4.98000000000000E-01   0.00000000000000E+00   0.00000000000000E+00
      0.00000000000000E+00   0.00000000000000E+00   0.00000000000000E+00  -5.20091358780825E-16
      2.17333333333333E-03
      0.00000000000000E+00   0.00000000000000E+00   0.00000000000000E+00   0.00000000000000E+00  -6.08014189199162E-16
     -3.18580140983425E-19  -6.08332769340145E-16   6.16440772022447E-16   1.00000000000000E+00   1.00000000000000E+00
      0.00000000000000E+00   0.00000000000000E+00   6.07207556289786E-16   5.07225948552504E-20   6.07258278884642E-16
      1.27462436120652E-15  -4.95653333333333E-01  -4.95653333333333E-01   0.00000000000000E+00   0.00000000000000E+00
      0.00000000000000E+00   0.00000000000000E+00   0.00000000000000E+00  -5.18044732795418E-16
      3.56568888888889E-03
      0.00000000000000E+00   0.00000000000000E+00   0.00000000000000E+00   0.00000000000000E+00  -6.05578503244511E-16
     -3.18494002434351E-19  -6.05896997246945E-16   6.16333395727621E-16   1.00000000000000E+00   1.00000000000000E+00
      0.00000000000000E+00   0.00000000000000E+00   6.05413483440340E-16   5.07225987681350E-20   6.05464206039108E-16
      1.27445056699864E-15  -4.92868622222222E-01  -4.92868622222222E-01   0.00000000000000E+00   0.00000000000000E+00
      0.00000000000000E+00   0.00000000000000E+00   0.00000000000000E+00  -5.15621786236196E-16
      5.21795081481481E-03
      0.00000000000000E+00   0.00000000000000E+00   0.00000000000000E+00   0.00000000000000E+00  -6.06990603626593E-16
     -3.18390573174676E-19  -6.07308994199768E-16   6.16205563497814E-16   1.00000000000000E+00   1.00000000000000E+00
      0.00000000000000E+00   0.00000000000000E+00   6.09291449158288E-16   5.07226035530451E-20   6.09342171761841E-16
      1.27424397341617E-15  -4.89564098370370E-01  -4.89564098370370E-01   0.00000000000000E+00   0.00000000000000E+00
      0.00000000000000E+00   0.00000000000000E+00   0.00000000000000E+00  -5.12754745247296E-16
      7.17863496691358E-03
      0.00000000000000E+00   0.00000000000000E+00   0.00000000000000E+00   0.00000000000000E+00  -6.07200361137713E-16
     -3.18266060936516E-19  -6.07518627198650E-16   6.16053289703607E-16   1.00000000000000E+00   1.00000000000000E+00
      0.00000000000000E+00   0.00000000000000E+00   6.10282761987753E-16   5.07226094395372E-20   6.10333484597192E-16
      1.27399830043715E-15  -4.85642730066173E-01  -4.85642730066173E-01   0.00000000000000E+00   0.00000000000000E+00
      0.00000000000000E+00   0.00000000000000E+00   0.00000000000000E+00  -5.09364289990539E-16
      9.50531349407078E-03
      0.00000000000000E+00   0.00000000000000E+00   0.00000000000000E+00   0.00000000000000E+00  -6.05610626670405E-16
     -3.18115672717246E-19  -6.05928742343122E-16   6.15871776671044E-16   1.00000000000000E+00   1.00000000000000E+00
      0.00000000000000E+00   0.00000000000000E+00   6.05103016146145E-16   5.07226167353986E-20   6.05153738762880E-16
      1.27370602396302E-15  -4.80989373011858E-01  -4.80989373011858E-01   0.00000000000000E+00   0.00000000000000E+00
      0.00000000000000E+00   0.00000000000000E+00   0.00000000000000E+00  -5.05357917532298E-16
      1.22663053462973E-02
      0.00000000000000E+00   0.00000000000000E+00   0.00000000000000E+00   0.00000000000000E+00  -6.08749313335994E-16
     -3.17933300329788E-19  -6.09067246636324E-16   6.15655233547882E-16   1.00000000000000E+00   1.00000000000000E+00
      0.00000000000000E+00   0.00000000000000E+00   6.09675417925003E-16   5.07226258566229E-20   6.09726140550860E-16
      1.27335810833956E-15  -4.75467389307405E-01  -4.75467389307405E-01   0.00000000000000E+00   0.00000000000000E+00
      0.00000000000000E+00   0.00000000000000E+00   0.00000000000000E+00  -5.00628258960393E-16
      1.55426823442728E-02
      0.00000000000000E+00   0.00000000000000E+00   0.00000000000000E+00   0.00000000000000E+00  -6.10078847589046E-16
     -3.17711050177326E-19  -6.10396558639224E-16   6.15396648166591E-16   1.00000000000000E+00   1.00000000000000E+00
      0.00000000000000E+00   0.00000000000000E+00   6.06185378146447E-16   5.07226373752921E-20   6.06236100783822E-16
      1.27294367153653E-15  -4.68914635311454E-01  -4.68914635311454E-01   0.00000000000000E+00   0.00000000000000E+00
      0.00000000000000E+00   0.00000000000000E+00   0.00000000000000E+00  -4.95051476966560E-16
      1.94306497152037E-02
      0.00000000000000E+00   0.00000000000000E+00   0.00000000000000E+00   0.00000000000000E+00  -6.09592611401008E-16
     -3.17438563544763E-19  -6.09910049964552E-16   6.15087494766280E-16   1.00000000000000E+00   1.00000000000000E+00
      0.00000000000000E+00   0.00000000000000E+00   6.05580084553258E-16   5.07226520917577E-20   6.05630807205350E-16
      1.27244956051628E-15  -4.61138700569592E-01  -4.61138700569592E-01   0.00000000000000E+00   0.00000000000000E+00
      0.00000000000000E+00   0.00000000000000E+00   0.00000000000000E+00  -4.88485972223022E-16
      2.40443709953751E-02
      0.00000000000000E+00   0.00000000000000E+00   0.00000000000000E+00   0.00000000000000E+00  -6.08171580416037E-16
     -3.17102069923250E-19  -6.08488682485960E-16   6.14717350643628E-16   1.00000000000000E+00   1.00000000000000E+00
      0.00000000000000E+00   0.00000000000000E+00   6.07958896836101E-16   5.07226711378971E-20   6.08009619507239E-16
      1.27185980466482E-15  -4.51911258009250E-01  -4.51911258009250E-01   0.00000000000000E+00   0.00000000000000E+00
      0.00000000000000E+00   0.00000000000000E+00   0.00000000000000E+00  -4.80771784764828E-16
      2.95193202478451E-02
      0.00000000000000E+00   0.00000000000000E+00   0.00000000000000E+00   0.00000000000000E+00  -6.06099769701760E-16
     -3.16682919038619E-19  -6.06416452620798E-16   6.14273382853769E-16   1.00000000000000E+00   1.00000000000000E+00
      0.00000000000000E+00   0.00000000000000E+00   6.11729137773695E-16   5.07226961450610E-20   6.11779860469840E-16
      1.27115490614789E-15  -4.40961359504310E-01  -4.40961359504310E-01   0.00000000000000E+00   0.00000000000000E+00
      0.00000000000000E+00   0.00000000000000E+00   0.00000000000000E+00  -4.71731307017686E-16
      3.60162600274429E-02
      0.00000000000000E+00   0.00000000000000E+00   0.00000000000000E+00   0.00000000000000E+00  -6.07818149304731E-16
     -3.16155426406674E-19  -6.08134304731138E-16   6.13739632775624E-16   1.00000000000000E+00   1.00000000000000E+00
      0.00000000000000E+00   0.00000000000000E+00   6.06538956601215E-16   5.07227294992615E-20   6.06589679330714E-16
      1.27031090571163E-15  -4.27967479945114E-01  -4.27967479945114E-01   0.00000000000000E+00   0.00000000000000E+00
      0.00000000000000E+00   0.00000000000000E+00   0.00000000000000E+00  -4.61172284618094E-16
      4.37259618992322E-02
      0.00000000000000E+00   0.00000000000000E+00   0.00000000000000E+00   0.00000000000000E+00  -6.09739196499774E-16
     -3.15483899389939E-19  -6.10054680399164E-16   6.13095968955638E-16   1.00000000000000E+00   1.00000000000000E+00
      0.00000000000000E+00   0.00000000000000E+00   6.10602034103932E-16   5.07227747046907E-20   6.10652756878637E-16
      1.26929813566365E-15  -4.12548076201536E-01  -4.12548076201536E-01   0.00000000000000E+00   0.00000000000000E+00
      0.00000000000000E+00   0.00000000000000E+00   0.00000000000000E+00  -4.48894614996927E-16
      5.28748081204222E-02
      0.00000000000000E+00   0.00000000000000E+00   0.00000000000000E+00   0.00000000000000E+00  -6.07053458209758E-16
     -3.14617858031678E-19  -6.07368076067790E-16   6.12316498723954E-16   1.00000000000000E+00   1.00000000000000E+00