DF-ISE text

Info {
  version   = 1.0
  type      = xyplot
  datasets  = [
    "time"
    "S OuterVoltage" "S InnerVoltage" "S QuasiFermiPotential" "S DisplacementCurrent" "S eCurrent"
    "S hCurrent" "S TotalCurrent" "S Charge" "D OuterVoltage" "D InnerVoltage"
    "D QuasiFermiPotential" "D DisplacementCurrent" "D eCurrent" "D hCurrent" "D TotalCurrent"
    "D Charge" "G OuterVoltage" "G InnerVoltage" "G QuasiFermiPotential" "G DisplacementCurrent"
    "G eCurrent" "G hCurrent" "G TotalCurrent" "G Charge" ]
  functions = [
    Time
    OuterVoltage InnerVoltage QuasiFermiPotential DisplacementCurrent eCurrent
    hCurrent TotalCurrent Charge OuterVoltage InnerVoltage
    QuasiFermiPotential DisplacementCurrent eCurrent hCurrent TotalCurrent
    Charge OuterVoltage InnerVoltage QuasiFermiPotential DisplacementCurrent
    eCurrent hCurrent TotalCurrent Charge ]
}

Data {
      0.00000000000000E+00
      0.00000000000000E+00   0.00000000000000E+00   0.00000000000000E+00   0.00000000000000E+00   7.67441101864843E-37
     -1.08987528081125E-34  -1.08220086979260E-34   3.78207153614322E-16   0.00000000000000E+00   0.00000000000000E+00
      0.00000000000000E+00   0.00000000000000E+00  -9.75185305872974E-19  -1.04163142869736E-34  -9.75185305872974E-19
      5.31821792121649E-16  -5.00000000000000E-01  -5.00000000000000E-01   0.00000000000000E+00   0.00000000000000E+00
      0.00000000000000E+00   0.00000000000000E+00   0.00000000000000E+00  -4.26361484553430E-16
      0.00000000000000E+00
      0.00000000000000E+00   0.00000000000000E+00   0.00000000000000E+00   0.00000000000000E+00   3.90713545966220E-18
     -4.09151274140659E-31   3.90713545966179E-18   3.78207153599277E-16   0.00000000000000E+00   0.00000000000000E+00
      0.00000000000000E+00   0.00000000000000E+00  -1.17022242798138E-17  -4.11882830924077E-31  -1.17022242798142E-17
      5.31821792105995E-16  -5.00000000000000E-01  -5.00000000000000E-01   0.00000000000000E+00   0.00000000000000E+00
      0.00000000000000E+00   0.00000000000000E+00   0.00000000000000E+00  -4.26361484557861E-16
      1.00000000000000E-03
      0.00000000000000E+00   0.00000000000000E+00   0.00000000000000E+00   0.00000000000000E+00   9.71035657717161E-18
     -3.62895924541584E-22   9.70999368124707E-18   3.78165364584039E-16   1.00000000000000E-03   1.00000000000000E-03
      0.00000000000000E+00   0.00000000000000E+00  -9.62901007595712E-18   8.45379631501742E-22  -9.62816469632561E-18
      5.32093153240027E-16  -5.00000000000000E-01  -5.00000000000000E-01   0.00000000000000E+00   0.00000000000000E+00
      0.00000000000000E+00   0.00000000000000E+00   0.00000000000000E+00  -4.26743128512833E-16
      2.17333333333333E-03
      0.00000000000000E+00   0.00000000000000E+00   0.00000000000000E+00   0.00000000000000E+00  -8.91759598371449E-18
     -7.86342077638070E-22  -8.91838232579213E-18   3.78117039429372E-16   2.17333333333333E-03   2.17333333333333E-03
      0.00000000000000E+00   0.00000000000000E+00   1.58604131858463E-17   1.81566821851321E-21   1.58622288540649E-17
      5.32412218939477E-16  -5.00000000000000E-01  -5.00000000000000E-01   0.00000000000000E+00   0.00000000000000E+00
      0.00000000000000E+00   0.00000000000000E+00   0.00000000000000E+00  -4.27186882679639E-16
      3.56568888888889E-03
      0.00000000000000E+00   0.00000000000000E+00   0.00000000000000E+00   0.00000000000000E+00  -8.02036067576014E-18
     -1.28537504651839E-21  -8.02164605080666E-18   3.78060670372897E-16   3.56568888888889E-03   3.56568888888889E-03
      0.00000000000000E+00   0.00000000000000E+00  -2.49821013882086E-18   2.93695785258018E-21  -2.49527318096828E-18
      5.32791763161118E-16  -5.00000000000000E-01  -5.00000000000000E-01   0.00000000000000E+00   0.00000000000000E+00
      0.00000000000000E+00   0.00000000000000E+00   0.00000000000000E+00  -4.27707890785691E-16
      5.21795081481481E-03
      0.00000000000000E+00   0.00000000000000E+00   0.00000000000000E+00   0.00000000000000E+00   6.54243386232681E-18
     -1.87243704040447E-21   6.54056142528641E-18   3.77995130992543E-16   5.21795081481481E-03   5.21795081481481E-03
      0.00000000000000E+00   0.00000000000000E+00  -7.17957819811878E-18   4.22548854851135E-21  -7.17535270957026E-18
      5.33243422092970E-16  -5.00000000000000E-01  -5.00000000000000E-01   0.00000000000000E+00   0.00000000000000E+00
      0.00000000000000E+00   0.00000000000000E+00   0.00000000000000E+00  -4.28318432322280E-16
      7.17863496691358E-03
      0.00000000000000E+00   0.00000000000000E+00   0.00000000000000E+00   0.00000000000000E+00   2.52664381822026E-18
     -2.56147403273180E-21   2.52408234418753E-18   3.77919220860150E-16   7.17863496691358E-03   7.17863496691358E-03
      0.00000000000000E+00   0.00000000000000E+00   1.05787237595885E-17   5.69599169535800E-21   1.05844197512839E-17
      5.33781125845449E-16  -5.00000000000000E-01  -5.00000000000000E-01   0.00000000000000E+00   0.00000000000000E+00
      0.00000000000000E+00   0.00000000000000E+00   0.00000000000000E+00  -4.29032301618502E-16
      9.50531349407078E-03
      0.00000000000000E+00   0.00000000000000E+00   0.00000000000000E+00   0.00000000000000E+00  -1.61665036837885E-17
     -3.36781976514519E-21  -1.61698715035536E-17   3.77831695584337E-16   9.50531349407078E-03   9.50531349407078E-03
      0.00000000000000E+00   0.00000000000000E+00   7.90680949154986E-18   7.35986901880263E-21   7.91416936056866E-18
      5.34421563043500E-16  -5.00000000000000E-01  -5.00000000000000E-01   0.00000000000000E+00   0.00000000000000E+00
      0.00000000000000E+00   0.00000000000000E+00   0.00000000000000E+00  -4.29864840206611E-16
      1.22663053462973E-02
      0.00000000000000E+00   0.00000000000000E+00   0.00000000000000E+00   0.00000000000000E+00  -1.04488546077230E-17
     -4.30788516783831E-21  -1.04531624928908E-17   3.77731312121017E-16   1.22663053462973E-02   1.22663053462973E-02
      0.00000000000000E+00   0.00000000000000E+00   1.98751801123135E-17   9.22267541236927E-21   1.98844027877258E-17
      5.35184738049795E-16  -5.00000000000000E-01  -5.00000000000000E-01   0.00000000000000E+00   0.00000000000000E+00
      0.00000000000000E+00   0.00000000000000E+00   0.00000000000000E+00  -4.30832919408844E-16
      1.55426823442728E-02
      0.00000000000000E+00   0.00000000000000E+00   0.00000000000000E+00   0.00000000000000E+00   6.00170429886478E-18
     -5.39856387727099E-21   5.99630573498751E-18   3.77616890892954E-16   1.55426823442728E-02   1.55426823442728E-02
      0.00000000000000E+00   0.00000000000000E+00   5.59651162595290E-18   1.12808458258394E-20   5.60779247177874E-18
      5.36094635107387E-16  -5.00000000000000E-01  -5.00000000000000E-01   0.00000000000000E+00   0.00000000000000E+00
      0.00000000000000E+00   0.00000000000000E+00   0.00000000000000E+00  -4.31954870284001E-16
      1.94306497152037E-02
      0.00000000000000E+00   0.00000000000000E+00   0.00000000000000E+00   0.00000000000000E+00   5.81224367034877E-18
     -6.65626017932042E-21   5.80558741016945E-18   3.77487392857867E-16   1.94306497152037E-02   1.94306497152037E-02
      0.00000000000000E+00   0.00000000000000E+00  -8.49681821856337E-19   1.35177611943763E-20  -8.36164060661961E-19
      5.37180002130165E-16  -5.00000000000000E-01  -5.00000000000000E-01   0.00000000000000E+00   0.00000000000000E+00
      0.00000000000000E+00   0.00000000000000E+00   0.00000000000000E+00  -4.33250377477594E-16
      2.40443709953751E-02
      0.00000000000000E+00   0.00000000000000E+00   0.00000000000000E+00   0.00000000000000E+00   7.10295212895431E-19
     -8.09548369266771E-21   7.02199729202764E-19   3.77342002557245E-16   2.40443709953751E-02   2.40443709953751E-02
      0.00000000000000E+00   0.00000000000000E+00   6.35754916389038E-18   1.58995472171119E-20   6.37344871110749E-18
      5.38475262022391E-16  -5.00000000000000E-01  -5.00000000000000E-01   0.00000000000000E+00   0.00000000000000E+00
      0.00000000000000E+00   0.00000000000000E+00   0.00000000000000E+00  -4.34740393150827E-16
      2.95193202478451E-02
      0.00000000000000E+00   0.00000000000000E+00   0.00000000000000E+00   0.00000000000000E+00  -1.61564821440236E-17
     -9.72700397906547E-21  -1.61662091480027E-17   3.77180201676907E-16   2.95193202478451E-02   2.95193202478451E-02
      0.00000000000000E+00   0.00000000000000E+00   2.52404115931304E-17   1.83715083362812E-20   2.52587831014667E-17
      5.40021555695633E-16  -5.00000000000000E-01  -5.00000000000000E-01   0.00000000000000E+00   0.00000000000000E+00
      0.00000000000000E+00   0.00000000000000E+00   0.00000000000000E+00  -4.36447162511601E-16
      3.60162600274429E-02
      0.00000000000000E+00   0.00000000000000E+00   0.00000000000000E+00   0.00000000000000E+00  -1.15329641447258E-17
     -1.15558603728053E-20  -1.15445200050986E-17   3.77001795472169E-16   3.60162600274429E-02   3.60162600274429E-02
      0.00000000000000E+00   0.00000000000000E+00   1.88883879882402E-17   2.08566846220829E-20   1.89092446728623E-17
      5.41867903218160E-16  -5.00000000000000E-01  -5.00000000000000E-01   0.00000000000000E+00   0.00000000000000E+00
      0.00000000000000E+00   0.00000000000000E+00   0.00000000000000E+00  -4.38394574046149E-16
      4.37259618992322E-02
      0.00000000000000E+00   0.00000000000000E+00   0.00000000000000E+00   0.00000000000000E+00  -8.19563600691202E-20
     -1.35797178816834E-20  -9.55360779508036E-20   3.76806850315400E-16   4.37259618992322E-02   4.37259618992322E-02
      0.00000000000000E+00   0.00000000000000E+00   1.64382197418671E-17   2.32586329312133E-20   1.64614783747983E-17
      5.44072471075126E-16  -5.00000000000000E-01  -5.00000000000000E-01   0.00000000000000E+00   0.00000000000000E+00
      0.00000000000000E+00   0.00000000000000E+00   0.00000000000000E+00  -4.40609066338612E-16
      5.28748081204222E-02
      0.00000000000000E+00   0.00000000000000E+00   0.00000000000000E+00   0.00000000000000E+00  -7.24081787944282E-18
     -1.57886031955740E-20  -7.25660648263840E-18   3.76595480720726E-16   5.28748081204222E-02   5.28748081204222E-02
      0.00000000000000E+00   0.00000000000000E+00   8.19265109367502E-18   2.54704379918620E-20   8.21812153166688E-18
      5.46703922621606E-16  -5.00000000000000E-01  -5.00000000000000E-01   0.00000000000000E+00   0.00000000000000E+00
      0.00000000000000E+00   0.00000000000000E+00   0.00000000000000E+00  -4.43121428866739E-16
      6.36094543532852E-02
      0.00000000000000E+00   0.00000000000000E+00   0.00000000000000E+00   0.00000000000000E+00  -2.02960691072750E-17
     -1.81417484929801E-20  -2.03142108557680E-17   3.76369891660957E-16   6.36094543532852E-02   6.36094543532852E-02
      0.00000000000000E+00   0.00000000000000E+00   8.65064366353381E-18   2.73725922751471E-20   8.67801625580896E-18
      5.49807514422893E-16  -5.00000000000000E-01  -5.00000000000000E-01   0.00000000000000E+00   0.00000000000000E+00
      0.00000000000000E+00   0.00000000000000E+00   0.00000000000000E+00  -4.45938389128519E-16
      7.62047725998443E-02
      0.00000000000000E+00   0.00000000000000E+00   0.00000000000000E+00   0.00000000000000E+00  -3.98504080734441E-18
     -2.06241796609009E-20  -4.00566498700531E-18   3.76129022044133E-16   7.62047725998443E-02   7.62047725998443E-02
      0.00000000000000E+00   0.00000000000000E+00   2.25836080216351E-17   2.89038997364345E-20   2.26125119213715E-17
      5.53464214089837E-16  -5.00000000000000E-01  -5.00000000000000E-01   0.00000000000000E+00   0.00000000000000E+00
      0.00000000000000E+00   0.00000000000000E+00   0.00000000000000E+00  -4.49102453210761E-16
      9.09832793424738E-02
      0.00000000000000E+00   0.00000000000000E+00   0.00000000000000E+00   0.00000000000000E+00  -1.02109026787468E-17
     -2.32320393122387E-20  -1.02341347180591E-17   3.75870195479066E-16   9.09832793424738E-02   9.09832793424738E-02
      0.00000000000000E+00   0.00000000000000E+00   1.62301801632601E-17   3.00450410079374E-20   1.62602252042680E-17
      5.57767032026095E-16  -5.00000000000000E-01  -5.00000000000000E-01   0.00000000000000E+00   0.00000000000000E+00
      0.00000000000000E+00   0.00000000000000E+00   0.00000000000000E+00  -4.52670338195702E-16
      1.08323393920492E-01
      0.00000000000000E+00   0.00000000000000E+00   0.00000000000000E+00   0.00000000000000E+00  -2.23361162121458E-17
     -2.59869727797790E-20  -2.23621031849256E-17   3.75588268039570E-16   1.08323393920492E-01   1.08323393920492E-01
      0.00000000000000E+00   0.00000000000000E+00   2.90896460794473E-17   3.08232468183774E-20   2.91204693262657E-17
      5.62822512378712E-16  -5.00000000000000E-01  -5.00000000000000E-01   0.00000000000000E+00   0.00000000000000E+00
      0.00000000000000E+00   0.00000000000000E+00   0.00000000000000E+00  -4.56718155033914E-16
      1.28669128358701E-01
      0.00000000000000E+00   0.00000000000000E+00   0.00000000000000E+00   0.00000000000000E+00  -3.74358531786988E-17
     -2.89622914767193E-20  -3.74648154701755E-17   3.75274307835885E-16   1.28669128358701E-01   1.28669128358701E-01
      0.00000000000000E+00   0.00000000000000E+00   3.42538457020124E-17   3.13044975990455E-20   3.42851501996114E-17
      5.68752249668349E-16  -5.00000000000000E-01  -5.00000000000000E-01   0.00000000000000E+00   0.00000000000000E+00
      0.00000000000000E+00   0.00000000000000E+00   0.00000000000000E+00  -4.61349151940745E-16
      1.52541456766199E-01
      0.00000000000000E+00   0.00000000000000E+00   0.00000000000000E+00   0.00000000000000E+00  -2.21755406007855E-17
     -3.23366628455270E-20  -2.22078772636310E-17   3.74913256336637E-16   1.52541456766199E-01   1.52541456766199E-01
      0.00000000000000E+00   0.00000000000000E+00   4.04642301606249E-17   3.15752030111762E-20   4.04958053636361E-17
      5.75694088271591E-16  -5.00000000000000E-01  -5.00000000000000E-01   0.00000000000000E+00   0.00000000000000E+00
      0.00000000000000E+00   0.00000000000000E+00   0.00000000000000E+00  -4.66707131217119E-16
      1.80551655430996E-01
      0.00000000000000E+00   0.00000000000000E+00   0.00000000000000E+00   0.00000000000000E+00  -3.15326504221332E-17
     -3.64958143873883E-20  -3.15691462365206E-17   3.74480313343441E-16   1.80551655430996E-01   1.80551655430996E-01
      0.00000000000000E+00   0.00000000000000E+00   1.75562304505201E-17   3.17195438590697E-20   1.75879499943792E-17
      5.83803016781042E-16  -5.00000000000000E-01  -5.00000000000000E-01   0.00000000000000E+00   0.00000000000000E+00
      0.00000000000000E+00   0.00000000000000E+00   0.00000000000000E+00  -4.72997146515946E-16
      2.13416955197692E-01
      0.00000000000000E+00   0.00000000000000E+00   0.00000000000000E+00   0.00000000000000E+00  -3.02623547698820E-17
     -4.21470773404124E-20  -3.03045018472224E-17   3.73939101101448E-16   2.13416955197692E-01   2.13416955197692E-01
      0.00000000000000E+00   0.00000000000000E+00   3.72176241898319E-17   3.18020254262180E-20   3.72494262152581E-17
      5.93254635667054E-16  -5.00000000000000E-01  -5.00000000000000E-01   0.00000000000000E+00   0.00000000000000E+00
      0.00000000000000E+00   0.00000000000000E+00   0.00000000000000E+00  -4.80496378454481E-16
      2.51540702927059E-01
      0.00000000000000E+00   0.00000000000000E+00   0.00000000000000E+00   0.00000000000000E+00  -5.77381957304200E-17
     -4.98906665296133E-20  -5.77880863969496E-17   3.73267899014457E-16   2.51540702927059E-01   2.51540702927059E-01
      0.00000000000000E+00   0.00000000000000E+00   3.33130949796516E-17   3.18617080598111E-20   3.33449566877114E-17
      6.04141423442378E-16  -5.00000000000000E-01  -5.00000000000000E-01   0.00000000000000E+00   0.00000000000000E+00
      0.00000000000000E+00   0.00000000000000E+00   0.00000000000000E+00  -4.89346839828588E-16
      2.96272566929516E-01
      0.00000000000000E+00   0.00000000000000E+00   0.00000000000000E+00   0.00000000000000E+00  -7.06609587739314E-17
     -5.93173952028326E-20  -7.07202761691342E-17   3.72473735245310E-16   2.96272566929516E-01   2.96272566929516E-01
      0.00000000000000E+00   0.00000000000000E+00   5.97710887803764E-17   3.19195163217606E-20   5.98030082966982E-17
      6.16860575766298E-16  -5.00000000000000E-01  -5.00000000000000E-01   0.00000000000000E+00   0.00000000000000E+00
      0.00000000000000E+00   0.00000000000000E+00   0.00000000000000E+00  -4.99630787469700E-16
      3.48161529172367E-01
      0.00000000000000E+00   0.00000000000000E+00   0.00000000000000E+00   0.00000000000000E+00  -6.28905781646321E-17
     -6.89294746008545E-20  -6.29595076392329E-17   3.71587111862408E-16   3.48161529172367E-01   3.48161529172367E-01
      0.00000000000000E+00   0.00000000000000E+00   8.24859170697056E-17   3.19837706349517E-20   8.25179008403406E-17
      6.31582350919688E-16  -5.00000000000000E-01  -5.00000000000000E-01   0.00000000000000E+00   0.00000000000000E+00
      0.00000000000000E+00   0.00000000000000E+00   0.00000000000000E+00  -5.11152961080123E-16
      4.09044578203978E-01
      0.00000000000000E+00   0.00000000000000E+00   0.00000000000000E+00   0.00000000000000E+00  -8.46644746152962E-17
     -7.82120532213430E-20  -8.47426866685176E-17   3.70565512744517E-16   4.09044578203978E-01   4.09044578203978E-01
      0.00000000000000E+00   0.00000000000000E+00   8.38987694743514E-17   3.20614053490639E-20   8.39308308797005E-17
      6.48797258116720E-16  -5.00000000000000E-01  -5.00000000000000E-01   0.00000000000000E+00   0.00000000000000E+00
      0.00000000000000E+00   0.00000000000000E+00   0.00000000000000E+00  -5.24242546869637E-16
      4.79668915080647E-01
      0.00000000000000E+00   0.00000000000000E+00   0.00000000000000E+00   0.00000000000000E+00  -1.06600301786290E-16
     -8.82833364753897E-20  -1.06688585122765E-16   3.69323139144368E-16   4.79668915080647E-01   4.79668915080647E-01
      0.00000000000000E+00   0.00000000000000E+00   1.12331093073802E-16   3.21576032588825E-20   1.12363250677061E-16
      6.68640150478016E-16  -5.00000000000000E-01  -5.00000000000000E-01   0.00000000000000E+00   0.00000000000000E+00
      0.00000000000000E+00   0.00000000000000E+00   0.00000000000000E+00  -5.39289567079533E-16
      5.61593145857584E-01
      0.00000000000000E+00   0.00000000000000E+00   0.00000000000000E+00   0.00000000000000E+00  -1.37892749591470E-16
     -1.01007447808434E-19  -1.37993757039279E-16   3.67750093197261E-16   5.61593145857584E-01   5.61593145857584E-01
      0.00000000000000E+00   0.00000000000000E+00   1.69989740448111E-16   3.22632503905778E-20   1.70022003698501E-16
      6.91471147967004E-16  -5.00000000000000E-01  -5.00000000000000E-01   0.00000000000000E+00   0.00000000000000E+00
      0.00000000000000E+00   0.00000000000000E+00   0.00000000000000E+00  -5.56877566915571E-16
      6.56625253558830E-01
      0.00000000000000E+00   0.00000000000000E+00   0.00000000000000E+00   0.00000000000000E+00  -2.47494136908968E-16
     -1.16225801572941E-19  -2.47610362710541E-16   3.65779860367100E-16   6.56625253558830E-01   6.56625253558830E-01
      0.00000000000000E+00   0.00000000000000E+00   2.15322984603804E-16   3.23801752895532E-20   2.15355364779094E-16
      7.17755106013511E-16  -5.00000000000000E-01  -5.00000000000000E-01   0.00000000000000E+00   0.00000000000000E+00
      0.00000000000000E+00   0.00000000000000E+00   0.00000000000000E+00  -5.77331800630236E-16
      7.66862498492275E-01
      0.00000000000000E+00   0.00000000000000E+00   0.00000000000000E+00   0.00000000000000E+00  -4.82826256693643E-16
     -1.32590134810740E-19  -4.82958846828453E-16   3.63365030583868E-16   7.66862498492275E-01   7.66862498492275E-01
      0.00000000000000E+00   0.00000000000000E+00   4.57018547872050E-16   3.25106890772022E-20   4.57051058561127E-16
      7.48048672993400E-16  -5.00000000000000E-01  -5.00000000000000E-01   0.00000000000000E+00   0.00000000000000E+00
      0.00000000000000E+00   0.00000000000000E+00   0.00000000000000E+00  -6.00953597096042E-16
      8.93267872682626E-01
      0.00000000000000E+00   0.00000000000000E+00   0.00000000000000E+00   0.00000000000000E+00  -1.13107362544656E-15
     -1.48719872827422E-19  -1.13122234531939E-15   3.60500953584940E-16   8.93267872682626E-01   8.93267872682626E-01
      0.00000000000000E+00   0.00000000000000E+00   1.12918282532873E-15   3.26552004193208E-20   1.12921548052915E-15
      7.82596512875357E-16  -5.00000000000000E-01  -5.00000000000000E-01   0.00000000000000E+00   0.00000000000000E+00
      0.00000000000000E+00   0.00000000000000E+00   0.00000000000000E+00  -6.27879811719159E-16
      1.00000000000000E+00
      0.00000000000000E+00   0.00000000000000E+00   0.00000000000000E+00   0.00000000000000E+00  -2.47814461509836E-15
     -1.62957463406530E-19  -2.47830757256177E-15   3.58019565763949E-16   1.00000000000000E+00   1.00000000000000E+00
      0.00000000000000E+00   0.00000000000000E+00   2.46771691496426E-15   3.27735924245669E-20   2.46774968855668E-15
      8.11630179768894E-16  -5.00000000000000E-01  -5.00000000000000E-01   0.00000000000000E+00   0.00000000000000E+00
      0.00000000000000E+00   0.00000000000000E+00   0.00000000000000E+00  -6.50725495700857E-16
      0.00000000000000E+00
      0.00000000000000E+00   0.00000000000000E+00   0.00000000000000E+00   0.00000000000000E+00  -2.48016435902174E-15
     -1.62957462539967E-19  -2.48032731648428E-15   3.58019565772784E-16   1.00000000000000E+00   1.00000000000000E+00
      0.00000000000000E+00   0.00000000000000E+00   2.48834989143123E-15   3.27735924246137E-20   2.48838266502366E-15
      8.11630179774269E-16  -5.00000000000000E-01  -5.00000000000000E-01   0.00000000000000E+00   0.00000000000000E+00
      0.00000000000000E+00   0.00000000000000E+00   0.00000000000000E+00  -6.50725495634982E-16
      1.00000000000000E-03
      0.00000000000000E+00   0.00000000000000E+00   0.00000000000000E+00   0.00000000000000E+00  -2.51988773756669E-15
     -1.63392353684065E-19  -2.52005112992038E-15   3.57854864801359E-16   1.00000000000000E+00   1.00000000000000E+00
      0.00000000000000E+00   0.00000000000000E+00   2.54837790546869E-15   3.27728838480818E-20   2.54841067835254E-15
      8.11219505496874E-16  -4.98000000000000E-01  -4.98000000000000E-01   0.00000000000000E+00   0.00000000000000E+00
      0.00000000000000E+00   0.00000000000000E+00   0.00000000000000E+00  -6.49054415392179E-16
      2.17333333333333E-03
      0.00000000000000E+00   0.00000000000000E+00   0.00000000000000E+00   0.00000000000000E+00  -2.54654982305458E-15
     -1.63910819140440E-19  -2.54671373387372E-15   3.57660923374089E-16   1.00000000000000E+00   1.00000000000000E+00
      0.00000000000000E+00   0.00000000000000E+00   2.55523992737095E-15   3.27720487889039E-20   2.55527269941974E-15
      8.10737118699953E-16  -4.95653333333333E-01  -4.95653333333333E-01   0.00000000000000E+00   0.00000000000000E+00
      0.00000000000000E+00   0.00000000000000E+00   0.00000000000000E+00  -6.47098590624998E-16
      3.56568888888889E-03
      0.00000000000000E+00   0.00000000000000E+00   0.00000000000000E+00   0.00000000000000E+00  -2.60966396190822E-15
     -1.64537333140881E-19  -2.60982849924136E-15   3.57429801339270E-16   1.00000000000000E+00   1.00000000000000E+00
      0.00000000000000E+00   0.00000000000000E+00   2.63021231798730E-15   3.27710527077848E-20   2.63024508904000E-15
      8.10163948993591E-16  -4.92868622222222E-01  -4.92868622222222E-01   0.00000000000000E+00   0.00000000000000E+00
      0.00000000000000E+00   0.00000000000000E+00   0.00000000000000E+00  -6.44784588970452E-16
      5.21795081481481E-03
      0.00000000000000E+00   0.00000000000000E+00   0.00000000000000E+00   0.00000000000000E+00  -2.66279032663374E-15
     -1.65296297164584E-19  -2.66295562293090E-15   3.57154144787590E-16   1.00000000000000E+00   1.00000000000000E+00
      0.00000000000000E+00   0.00000000000000E+00   2.64951581513479E-15   3.27698634221297E-20   2.64954858499821E-15
      8.09482754740094E-16  -4.89564098370370E-01  -4.89564098370370E-01   0.00000000000000E+00   0.00000000000000E+00
      0.00000000000000E+00   0.00000000000000E+00   0.00000000000000E+00  -6.42048430352765E-16
      7.17863496691358E-03
      0.00000000000000E+00   0.00000000000000E+00   0.00000000000000E+00   0.00000000000000E+00  -2.72717035634553E-15
     -1.66218129253239E-19  -2.72733657447478E-15   3.56825047995240E-16   1.00000000000000E+00   1.00000000000000E+00
      0.00000000000000E+00   0.00000000000000E+00   2.69489794512257E-15   3.27684418493523E-20   2.69493071356442E-15
      8.08672957550016E-16  -4.85642730066173E-01  -4.85642730066173E-01   0.00000000000000E+00   0.00000000000000E+00
      0.00000000000000E+00   0.00000000000000E+00   0.00000000000000E+00  -6.38815416539693E-16
      9.50531349407078E-03
      0.00000000000000E+00   0.00000000000000E+00   0.00000000000000E+00   0.00000000000000E+00  -2.81699166677888E-15
     -1.67340798755998E-19  -2.81715900757763E-15   3.56431682885745E-16   1.00000000000000E+00   1.00000000000000E+00
      0.00000000000000E+00   0.00000000000000E+00   2.77504382357918E-15   3.27667403285370E-20   2.77507659031951E-15
      8.07709971169975E-16  -4.80989373011858E-01  -4.80989373011858E-01   0.00000000000000E+00   0.00000000000000E+00
      0.00000000000000E+00   0.00000000000000E+00   0.00000000000000E+00  -6.34998674773330E-16
      1.22663053462973E-02
      0.00000000000000E+00   0.00000000000000E+00   0.00000000000000E+00   0.00000000000000E+00  -2.91108763442639E-15
     -1.68711711519518E-19  -2.91125634613791E-15   3.55960820016619E-16   1.00000000000000E+00   1.00000000000000E+00
      0.00000000000000E+00   0.00000000000000E+00   2.87974193710877E-15   3.27647004411555E-20   2.87977470180921E-15
      8.06564383735079E-16  -4.75467389307405E-01  -4.75467389307405E-01   0.00000000000000E+00   0.00000000000000E+00
      0.00000000000000E+00   0.00000000000000E+00   0.00000000000000E+00  -6.30497695159586E-16
      1.55426823442728E-02
      0.00000000000000E+00   0.00000000000000E+00   0.00000000000000E+00   0.00000000000000E+00  -3.01862157161602E-15
     -1.70390064406359E-19  -3.01879196168043E-15   3.55396198888389E-16   1.00000000000000E+00   1.00000000000000E+00
      0.00000000000000E+00   0.00000000000000E+00   3.04270553676775E-15   3.27622501269110E-20   3.04273829901788E-15
      8.05200954065993E-16  -4.68914635311454E-01  -4.68914635311454E-01   0.00000000000000E+00   0.00000000000000E+00
      0.00000000000000E+00   0.00000000000000E+00   0.00000000000000E+00  -6.25197017254969E-16
      1.94306497152037E-02
      0.00000000000000E+00   0.00000000000000E+00   0.00000000000000E+00   0.00000000000000E+00  -3.18924362607923E-15
     -1.72449894237433E-19  -3.18941607597347E-15   3.54717683777257E-16   1.00000000000000E+00   1.00000000000000E+00
      0.00000000000000E+00   0.00000000000000E+00   3.17548727420292E-15   3.27592997737075E-20   3.17552003350269E-15
      8.03577366667292E-16  -4.61138700569592E-01  -4.61138700569592E-01   0.00000000000000E+00   0.00000000000000E+00
      0.00000000000000E+00   0.00000000000000E+00   0.00000000000000E+00  -6.18965360463548E-16
      2.40443709953751E-02
      0.00000000000000E+00   0.00000000000000E+00   0.00000000000000E+00   0.00000000000000E+00  -3.39177047953439E-15
     -1.74984775550086E-19  -3.39194546430994E-15   3.53900102491594E-16   1.00000000000000E+00   1.00000000000000E+00
      0.00000000000000E+00   0.00000000000000E+00   3.40491861220124E-15   3.27557367345677E-20   3.40495136793798E-15
      8.01642661068779E-16  -4.51911258009250E-01  -4.51911258009250E-01   0.00000000000000E+00   0.00000000000000E+00
      0.00000000000000E+00   0.00000000000000E+00   0.00000000000000E+00  -6.11655777260811E-16
      2.95193202478451E-02
      0.00000000000000E+00   0.00000000000000E+00   0.00000000000000E+00   0.00000000000000E+00  -3.66589183626442E-15
     -1.78116718608977E-19  -3.66606995298303E-15   3.52911602849277E-16   1.00000000000000E+00   1.00000000000000E+00
      0.00000000000000E+00   0.00000000000000E+00   3.65997458504385E-15   3.27514173228114E-20   3.66000733646118E-15
      7.99335201277625E-16  -4.40961359504310E-01  -4.40961359504310E-01   0.00000000000000E+00   0.00000000000000E+00
      0.00000000000000E+00   0.00000000000000E+00   0.00000000000000E+00  -6.03107923706075E-16
      3.60162600274429E-02
      0.00000000000000E+00   0.00000000000000E+00   0.00000000000000E+00   0.00000000000000E+00  -4.00589987565290E-15
     -1.82016979734572E-19  -4.00608189263263E-15   3.51711250880670E-16   1.00000000000000E+00   1.00000000000000E+00
      0.00000000000000E+00   0.00000000000000E+00   4.04213178388353E-15   3.27461545560920E-20   4.04216453003809E-15
      7.96579956877990E-16  -4.27967479945114E-01  -4.27967479945114E-01   0.00000000000000E+00   0.00000000000000E+00
      0.00000000000000E+00   0.00000000000000E+00   0.00000000000000E+00  -5.93154559069646E-16
      4.37259618992322E-02
      0.00000000000000E+00   0.00000000000000E+00   0.00000000000000E+00   0.00000000000000E+00  -4.52179627478124E-15
     -1.86958166632317E-19  -4.52198323294788E-15   3.50245430106331E-16   1.00000000000000E+00   1.00000000000000E+00
      0.00000000000000E+00   0.00000000000000E+00   4.49818848957721E-15   3.27396985782071E-20   4.49822122927578E-15
      7.93284708727952E-16  -4.12548076201536E-01  -4.12548076201536E-01   0.00000000000000E+00   0.00000000000000E+00
      0.00000000000000E+00   0.00000000000000E+00   0.00000000000000E+00  -5.81636130487003E-16
      5.28748081204222E-02
      0.00000000000000E+00   0.00000000000000E+00   0.00000000000000E+00   0.00000000000000E+00  -5.23899576678440E-15
     -1.93444187372878E-19  -5.23918921097178E-15   3.48442390428585E-16   1.00000000000000E+00   1.00000000000000E+00