DF-ISE text

Info {
  version   = 1.0
  type      = xyplot
  datasets  = [
    "time"
    "S OuterVoltage" "S InnerVoltage" "S QuasiFermiPotential" "S DisplacementCurrent" "S eCurrent"
    "S hCurrent" "S TotalCurrent" "S Charge" "D OuterVoltage" "D InnerVoltage"
    "D QuasiFermiPotential" "D DisplacementCurrent" "D eCurrent" "D hCurrent" "D TotalCurrent"
    "D Charge" "G OuterVoltage" "G InnerVoltage" "G QuasiFermiPotential" "G DisplacementCurrent"
    "G eCurrent" "G hCurrent" "G TotalCurrent" "G Charge" ]
  functions = [
    Time
    OuterVoltage InnerVoltage QuasiFermiPotential DisplacementCurrent eCurrent
    hCurrent TotalCurrent Charge OuterVoltage InnerVoltage
    QuasiFermiPotential DisplacementCurrent eCurrent hCurrent TotalCurrent
    Charge OuterVoltage InnerVoltage QuasiFermiPotential DisplacementCurrent
    eCurrent hCurrent TotalCurrent Charge ]
}

Data {
      0.00000000000000E+00
      0.00000000000000E+00   0.00000000000000E+00   0.00000000000000E+00   0.00000000000000E+00  -8.71919182093914E-19
      1.75435953813990E-35  -8.71919182093914E-19   4.93352825858217E-16   0.00000000000000E+00   0.00000000000000E+00
      0.00000000000000E+00   0.00000000000000E+00   5.28675077972630E-37   1.53180693518208E-35   1.58467444297934E-35
      6.55162078902017E-16  -5.00000000000000E-01  -5.00000000000000E-01   0.00000000000000E+00   0.00000000000000E+00
      0.00000000000000E+00   0.00000000000000E+00   0.00000000000000E+00  -4.22505456237399E-16
      0.00000000000000E+00
      0.00000000000000E+00   0.00000000000000E+00   0.00000000000000E+00   0.00000000000000E+00   6.93358624983167E-18
     -1.59063870944099E-31   6.93358624983151E-18   4.93352824905657E-16   0.00000000000000E+00   0.00000000000000E+00
      0.00000000000000E+00   0.00000000000000E+00   1.83693208802324E-17  -1.58966942921446E-31   1.83693208802322E-17
      6.55162078153160E-16  -5.00000000000000E-01  -5.00000000000000E-01   0.00000000000000E+00   0.00000000000000E+00
      0.00000000000000E+00   0.00000000000000E+00   0.00000000000000E+00  -4.22505456309598E-16
      1.00000000000000E-03
      0.00000000000000E+00   0.00000000000000E+00   0.00000000000000E+00   0.00000000000000E+00  -2.31634574761271E-17
     -8.30485761903917E-23  -2.31635405247033E-17   4.93275008704946E-16   1.00000000000000E-03   1.00000000000000E-03
      0.00000000000000E+00   0.00000000000000E+00  -9.52800653013544E-18   1.20780991153935E-22  -9.52788574914429E-18
      6.55452840599868E-16  -5.00000000000000E-01  -5.00000000000000E-01   0.00000000000000E+00   0.00000000000000E+00
      0.00000000000000E+00   0.00000000000000E+00   0.00000000000000E+00  -4.22939583455108E-16
      2.17333333333333E-03
      0.00000000000000E+00   0.00000000000000E+00   0.00000000000000E+00   0.00000000000000E+00  -1.30221460396635E-17
     -1.80833937211152E-22  -1.30223268736007E-17   4.93184573261353E-16   2.17333333333333E-03   2.17333333333333E-03
      0.00000000000000E+00   0.00000000000000E+00   8.76233591094767E-18   2.60188919941296E-22   8.76259609986762E-18
      6.55794813025281E-16  -5.00000000000000E-01  -5.00000000000000E-01   0.00000000000000E+00   0.00000000000000E+00
      0.00000000000000E+00   0.00000000000000E+00   0.00000000000000E+00  -4.23445407890948E-16
      3.56568888888889E-03
      0.00000000000000E+00   0.00000000000000E+00   0.00000000000000E+00   0.00000000000000E+00  -1.40181845863998E-17
     -2.97315827661838E-22  -1.40184819022274E-17   4.93078462324808E-16   3.56568888888889E-03   3.56568888888889E-03
      0.00000000000000E+00   0.00000000000000E+00  -1.54067114847642E-17   4.22357091958248E-22  -1.54062891276722E-17
      6.56201737603062E-16  -5.00000000000000E-01  -5.00000000000000E-01   0.00000000000000E+00   0.00000000000000E+00
      0.00000000000000E+00   0.00000000000000E+00   0.00000000000000E+00  -4.24040726600181E-16
      5.21795081481481E-03
      0.00000000000000E+00   0.00000000000000E+00   0.00000000000000E+00   0.00000000000000E+00   4.34743911709335E-18
     -4.36107737813116E-22   4.34700300935553E-18   4.92954222364698E-16   5.21795081481481E-03   5.21795081481481E-03
      0.00000000000000E+00   0.00000000000000E+00   3.95758748280757E-17   6.10164853887833E-22   3.95764849929296E-17
      6.56686162871429E-16  -5.00000000000000E-01  -5.00000000000000E-01   0.00000000000000E+00   0.00000000000000E+00
      0.00000000000000E+00   0.00000000000000E+00   0.00000000000000E+00  -4.24740317889453E-16
      7.17863496691358E-03
      0.00000000000000E+00   0.00000000000000E+00   0.00000000000000E+00   0.00000000000000E+00  -3.43315826864949E-17
     -6.01511755731186E-22  -3.43321841982506E-17   4.92809120592212E-16   7.17863496691358E-03   7.17863496691358E-03
      0.00000000000000E+00   0.00000000000000E+00   2.77752243134168E-17   8.26462975754543E-22   2.77760507763926E-17
      6.57263131227445E-16  -5.00000000000000E-01  -5.00000000000000E-01   0.00000000000000E+00   0.00000000000000E+00
      0.00000000000000E+00   0.00000000000000E+00   0.00000000000000E+00  -4.25560991582999E-16
      9.50531349407078E-03
      0.00000000000000E+00   0.00000000000000E+00   0.00000000000000E+00   0.00000000000000E+00  -2.30784449741846E-17
     -7.98630489948487E-22  -2.30792436046745E-17   4.92640155527899E-16   9.50531349407078E-03   9.50531349407078E-03
      0.00000000000000E+00   0.00000000000000E+00   1.45528236981202E-17   1.07384762271713E-21   1.45538975457430E-17
      6.57950691728207E-16  -5.00000000000000E-01  -5.00000000000000E-01   0.00000000000000E+00   0.00000000000000E+00
      0.00000000000000E+00   0.00000000000000E+00   0.00000000000000E+00  -4.26521714033733E-16
      1.22663053462973E-02
      0.00000000000000E+00   0.00000000000000E+00   0.00000000000000E+00   0.00000000000000E+00   4.32960853072952E-18
     -1.03348051272199E-21   4.32857505021680E-18   4.92444087866763E-16   1.22663053462973E-02   1.22663053462973E-02
      0.00000000000000E+00   0.00000000000000E+00   2.63470395472571E-17   1.35432169092979E-21   2.63483938689480E-17
      6.58770518406757E-16  -5.00000000000000E-01  -5.00000000000000E-01   0.00000000000000E+00   0.00000000000000E+00
      0.00000000000000E+00   0.00000000000000E+00   0.00000000000000E+00  -4.27643682780321E-16
      1.55426823442728E-02
      0.00000000000000E+00   0.00000000000000E+00   0.00000000000000E+00   0.00000000000000E+00  -5.49546717323347E-17
     -1.31309255887294E-21  -5.49559848248935E-17   4.92217498435277E-16   1.55426823442728E-02   1.55426823442728E-02
      0.00000000000000E+00   0.00000000000000E+00   3.21618159362069E-17   1.66881657048688E-21   3.21634847527774E-17
      6.59748652723136E-16  -5.00000000000000E-01  -5.00000000000000E-01   0.00000000000000E+00   0.00000000000000E+00
      0.00000000000000E+00   0.00000000000000E+00   0.00000000000000E+00  -4.28950328588338E-16
      1.94306497152037E-02
      0.00000000000000E+00   0.00000000000000E+00   0.00000000000000E+00   0.00000000000000E+00  -5.30707593109097E-17
     -1.64557327538596E-21  -5.30724048841851E-17   4.91956879804493E-16   1.94306497152037E-02   1.94306497152037E-02
      0.00000000000000E+00   0.00000000000000E+00   5.31899327980996E-17   2.01655837360176E-21   5.31919493564732E-17
      6.60916388664667E-16  -5.00000000000000E-01  -5.00000000000000E-01   0.00000000000000E+00   0.00000000000000E+00
      0.00000000000000E+00   0.00000000000000E+00   0.00000000000000E+00  -4.30467225822208E-16
      2.40443709953751E-02
      0.00000000000000E+00   0.00000000000000E+00   0.00000000000000E+00   0.00000000000000E+00  -3.14906230282992E-17
     -2.04008790180017E-21  -3.14926631162010E-17   4.91658765385263E-16   2.40443709953751E-02   2.40443709953751E-02
      0.00000000000000E+00   0.00000000000000E+00   4.21153805007734E-17   2.39429373678922E-21   4.21177747945102E-17
      6.62311317031764E-16  -5.00000000000000E-01  -5.00000000000000E-01   0.00000000000000E+00   0.00000000000000E+00
      0.00000000000000E+00   0.00000000000000E+00   0.00000000000000E+00  -4.32221902047596E-16
      2.95193202478451E-02
      0.00000000000000E+00   0.00000000000000E+00   0.00000000000000E+00   0.00000000000000E+00  -6.14445944409616E-17
     -2.50669610990842E-21  -6.14471011370715E-17   4.91319898447656E-16   2.95193202478451E-02   2.95193202478451E-02
      0.00000000000000E+00   0.00000000000000E+00   3.82688031655981E-17   2.79545442402625E-21   3.82715986200221E-17
      6.63978544099814E-16  -5.00000000000000E-01  -5.00000000000000E-01   0.00000000000000E+00   0.00000000000000E+00
      0.00000000000000E+00   0.00000000000000E+00   0.00000000000000E+00  -4.34243545016408E-16
      3.60162600274429E-02
      0.00000000000000E+00   0.00000000000000E+00   0.00000000000000E+00   0.00000000000000E+00  -4.78906895847677E-17
     -3.05593786283933E-21  -4.78937455226306E-17   4.90937437336593E-16   3.60162600274429E-02   3.60162600274429E-02
      0.00000000000000E+00   0.00000000000000E+00   6.53329582299979E-17   3.20943794841034E-21   6.53361676679463E-17
      6.65972095884415E-16  -5.00000000000000E-01  -5.00000000000000E-01   0.00000000000000E+00   0.00000000000000E+00
      0.00000000000000E+00   0.00000000000000E+00   0.00000000000000E+00  -4.36562625814134E-16
      4.37259618992322E-02
      0.00000000000000E+00   0.00000000000000E+00   0.00000000000000E+00   0.00000000000000E+00  -3.63124764782455E-17
     -3.69800683261692E-21  -3.63161744850781E-17   4.90509192852778E-16   4.37259618992322E-02   4.37259618992322E-02
      0.00000000000000E+00   0.00000000000000E+00   5.14514632575209E-17   3.62130060202034E-21   5.14550845581230E-17
      6.68356521032324E-16  -5.00000000000000E-01  -5.00000000000000E-01   0.00000000000000E+00   0.00000000000000E+00
      0.00000000000000E+00   0.00000000000000E+00   0.00000000000000E+00  -4.39210460992245E-16
      5.28748081204222E-02
      0.00000000000000E+00   0.00000000000000E+00   0.00000000000000E+00   0.00000000000000E+00  -5.85307588999089E-17
     -4.44128361107193E-21  -5.85352001835199E-17   4.90033883176016E-16   5.28748081204222E-02   5.28748081204222E-02
      0.00000000000000E+00   0.00000000000000E+00   7.11719224755735E-17   4.01222509278681E-21   7.11759347006663E-17
      6.71208705260134E-16  -5.00000000000000E-01  -5.00000000000000E-01   0.00000000000000E+00   0.00000000000000E+00
      0.00000000000000E+00   0.00000000000000E+00   0.00000000000000E+00  -4.42218763960039E-16
      6.36094543532852E-02
      0.00000000000000E+00   0.00000000000000E+00   0.00000000000000E+00   0.00000000000000E+00  -7.32419580072572E-17
     -5.28057564830134E-21  -7.32472385829055E-17   4.89517040662713E-16   6.36094543532852E-02   6.36094543532852E-02
      0.00000000000000E+00   0.00000000000000E+00   6.41842675829980E-17   4.35769308783620E-21   6.41886252760858E-17
      6.74581464260907E-16  -5.00000000000000E-01  -5.00000000000000E-01   0.00000000000000E+00   0.00000000000000E+00
      0.00000000000000E+00   0.00000000000000E+00   0.00000000000000E+00  -4.45581927081751E-16
      7.62047725998443E-02
      0.00000000000000E+00   0.00000000000000E+00   0.00000000000000E+00   0.00000000000000E+00  -7.20903867329448E-17
     -6.21079937810647E-21  -7.20965975323229E-17   4.88960305375103E-16   7.62047725998443E-02   7.62047725998443E-02
      0.00000000000000E+00   0.00000000000000E+00   8.77842946318976E-17   4.63905062944099E-21   8.77889336825270E-17
      6.78568004984240E-16  -5.00000000000000E-01  -5.00000000000000E-01   0.00000000000000E+00   0.00000000000000E+00
      0.00000000000000E+00   0.00000000000000E+00   0.00000000000000E+00  -4.49324743749460E-16
      9.09832793424738E-02
      0.00000000000000E+00   0.00000000000000E+00   0.00000000000000E+00   0.00000000000000E+00  -7.12036441393391E-17
     -7.21611121424574E-21  -7.12108602505533E-17   4.88366238608404E-16   9.09832793424738E-02   9.09832793424738E-02
      0.00000000000000E+00   0.00000000000000E+00   1.00437957932479E-16   4.84005592158385E-21   1.00442797988400E-16
      6.83276654964911E-16  -5.00000000000000E-01  -5.00000000000000E-01   0.00000000000000E+00   0.00000000000000E+00
      0.00000000000000E+00   0.00000000000000E+00   0.00000000000000E+00  -4.53472841616658E-16
      1.08323393920492E-01
      0.00000000000000E+00   0.00000000000000E+00   0.00000000000000E+00   0.00000000000000E+00  -9.18880877940780E-17
     -8.26825022288635E-21  -9.18963560443008E-17   4.87737165405055E-16   1.08323393920492E-01   1.08323393920492E-01
      0.00000000000000E+00   0.00000000000000E+00   6.99895687994822E-17   4.94818233504837E-21   6.99945169818173E-17
      6.88832189061257E-16  -5.00000000000000E-01  -5.00000000000000E-01   0.00000000000000E+00   0.00000000000000E+00
      0.00000000000000E+00   0.00000000000000E+00   0.00000000000000E+00  -4.58057345900709E-16
      1.28669128358701E-01
      0.00000000000000E+00   0.00000000000000E+00   0.00000000000000E+00   0.00000000000000E+00  -1.20283186630237E-16
     -9.33133277363488E-21  -1.20292517963010E-16   4.87072214014077E-16   1.28669128358701E-01   1.28669128358701E-01
      0.00000000000000E+00   0.00000000000000E+00   1.08542519508685E-16   4.96146394288961E-21   1.08547480972628E-16
      6.95376272034015E-16  -5.00000000000000E-01  -5.00000000000000E-01   0.00000000000000E+00   0.00000000000000E+00
      0.00000000000000E+00   0.00000000000000E+00   0.00000000000000E+00  -4.63126225039883E-16
      1.52541456766199E-01
      0.00000000000000E+00   0.00000000000000E+00   0.00000000000000E+00   0.00000000000000E+00  -1.31710245426435E-16
     -1.03761729043730E-20  -1.31720621599340E-16   4.86362632652248E-16   1.52541456766199E-01   1.52541456766199E-01
      0.00000000000000E+00   0.00000000000000E+00   1.66354262178471E-16   4.90303091837529E-21   1.66359165209389E-16
      7.03067363804905E-16  -5.00000000000000E-01  -5.00000000000000E-01   0.00000000000000E+00   0.00000000000000E+00
      0.00000000000000E+00   0.00000000000000E+00   0.00000000000000E+00  -4.68761885932497E-16
      1.80551655430996E-01
      0.00000000000000E+00   0.00000000000000E+00   0.00000000000000E+00   0.00000000000000E+00  -1.98982436050756E-16
     -1.13995840674419E-20  -1.98993835634823E-16   4.85587216692794E-16   1.80551655430996E-01   1.80551655430996E-01
      0.00000000000000E+00   0.00000000000000E+00   1.47659831679915E-16   4.80535200921728E-21   1.47664637031924E-16
      7.12081753012147E-16  -5.00000000000000E-01  -5.00000000000000E-01   0.00000000000000E+00   0.00000000000000E+00
      0.00000000000000E+00   0.00000000000000E+00   0.00000000000000E+00  -4.75097837931856E-16
      2.13416955197692E-01
      0.00000000000000E+00   0.00000000000000E+00   0.00000000000000E+00   0.00000000000000E+00  -1.76222957942313E-16
     -1.24581891368528E-20  -1.76235416131450E-16   4.84705368499356E-16   2.13416955197692E-01   2.13416955197692E-01
      0.00000000000000E+00   0.00000000000000E+00   2.28428482513893E-16   4.69329594408563E-21   2.28433175809837E-16
      7.22613979586368E-16  -5.00000000000000E-01  -5.00000000000000E-01   0.00000000000000E+00   0.00000000000000E+00
      0.00000000000000E+00   0.00000000000000E+00   0.00000000000000E+00  -4.82344122010797E-16
      2.51978906923948E-01
      0.00000000000000E+00   0.00000000000000E+00   0.00000000000000E+00   0.00000000000000E+00  -2.98175745924131E-16
     -1.37907262950444E-20  -2.98189536650427E-16   4.83633487751747E-16   2.51978906923948E-01   2.51978906923948E-01
      0.00000000000000E+00   0.00000000000000E+00   2.81037150316639E-16   4.60028667636652E-21   2.81041750603316E-16
      7.34867141134874E-16  -5.00000000000000E-01  -5.00000000000000E-01   0.00000000000000E+00   0.00000000000000E+00
      0.00000000000000E+00   0.00000000000000E+00   0.00000000000000E+00  -4.90878532597774E-16
      2.96710770926406E-01
      0.00000000000000E+00   0.00000000000000E+00   0.00000000000000E+00   0.00000000000000E+00  -3.85971724266009E-16
     -1.59255416489430E-20  -3.85987649807658E-16   4.82251242531867E-16   2.96710770926406E-01   2.96710770926406E-01
      0.00000000000000E+00   0.00000000000000E+00   3.63037669533213E-16   4.58528428496756E-21   3.63042254817498E-16
      7.48896823029715E-16  -5.00000000000000E-01  -5.00000000000000E-01   0.00000000000000E+00   0.00000000000000E+00
      0.00000000000000E+00   0.00000000000000E+00   0.00000000000000E+00  -5.01168780673784E-16
      3.48599733169256E-01
      0.00000000000000E+00   0.00000000000000E+00   0.00000000000000E+00   0.00000000000000E+00  -6.63823746929252E-16
     -1.90315706038008E-20  -6.63842778499855E-16   4.80528063239593E-16   3.48599733169256E-01   3.48599733169256E-01
      0.00000000000000E+00   0.00000000000000E+00   6.60922351756909E-16   4.62133356923828E-21   6.60926973090479E-16
      7.64997566705921E-16  -5.00000000000000E-01  -5.00000000000000E-01   0.00000000000000E+00   0.00000000000000E+00
      0.00000000000000E+00   0.00000000000000E+00   0.00000000000000E+00  -5.13365420529471E-16
      4.08790929370963E-01
      0.00000000000000E+00   0.00000000000000E+00   0.00000000000000E+00   0.00000000000000E+00  -1.20191399659203E-15
     -2.26334524376058E-20  -1.20193663004447E-15   4.78519447010360E-16   4.08790929370963E-01   4.08790929370963E-01
      0.00000000000000E+00   0.00000000000000E+00   1.14819611991442E-15   4.65437169466396E-21   1.14820077428611E-15
      7.83566165495060E-16  -5.00000000000000E-01  -5.00000000000000E-01   0.00000000000000E+00   0.00000000000000E+00
      0.00000000000000E+00   0.00000000000000E+00   0.00000000000000E+00  -5.27247953348347E-16
      4.79415266247632E-01
      0.00000000000000E+00   0.00000000000000E+00   0.00000000000000E+00   0.00000000000000E+00  -2.34870425078734E-15
     -2.68373525432704E-20  -2.34873108813989E-15   4.76117875911705E-16   4.79415266247632E-01   4.79415266247632E-01
      0.00000000000000E+00   0.00000000000000E+00   2.38237495667109E-15   4.66430990603523E-21   2.38237962098100E-15
      8.05209311063668E-16  -5.00000000000000E-01  -5.00000000000000E-01   0.00000000000000E+00   0.00000000000000E+00
      0.00000000000000E+00   0.00000000000000E+00   0.00000000000000E+00  -5.43279469847225E-16
      5.61339497024568E-01
      0.00000000000000E+00   0.00000000000000E+00   0.00000000000000E+00   0.00000000000000E+00  -5.34439309508856E-15
     -3.14163880528888E-20  -5.34442451147662E-15   4.73262673645219E-16   5.61339497024568E-01   5.61339497024568E-01
      0.00000000000000E+00   0.00000000000000E+00   5.32964792565947E-15   4.66054291591062E-21   5.32965258620238E-15
      8.30149319194033E-16  -5.00000000000000E-01  -5.00000000000000E-01   0.00000000000000E+00   0.00000000000000E+00
      0.00000000000000E+00   0.00000000000000E+00   0.00000000000000E+00  -5.61543111495492E-16
      6.56371604725814E-01
      0.00000000000000E+00   0.00000000000000E+00   0.00000000000000E+00   0.00000000000000E+00  -1.38911254290450E-14
     -3.64732911956855E-20  -1.38911619023362E-14   4.69805448591955E-16   6.56371604725814E-01   6.56371604725814E-01
      0.00000000000000E+00   0.00000000000000E+00   1.38470422087349E-14   4.65777016127173E-21   1.38470468665050E-14
      8.58868198627923E-16  -5.00000000000000E-01  -5.00000000000000E-01   0.00000000000000E+00   0.00000000000000E+00
      0.00000000000000E+00   0.00000000000000E+00   0.00000000000000E+00  -5.82505811486152E-16
      7.66608849659259E-01
      0.00000000000000E+00   0.00000000000000E+00   0.00000000000000E+00   0.00000000000000E+00  -4.25048165377978E-14
     -4.18414427965279E-20  -4.25048583792406E-14   4.65608476509873E-16   7.66608849659259E-01   7.66608849659259E-01
      0.00000000000000E+00   0.00000000000000E+00   4.24449433805578E-14   4.65814278867872E-21   4.24449480387005E-14
      8.91961482145248E-16  -5.00000000000000E-01  -5.00000000000000E-01   0.00000000000000E+00   0.00000000000000E+00
      0.00000000000000E+00   0.00000000000000E+00   0.00000000000000E+00  -6.06601541961269E-16
      8.93014223849610E-01
      0.00000000000000E+00   0.00000000000000E+00   0.00000000000000E+00   0.00000000000000E+00  -1.53531928768324E-13
     -4.85225991096321E-20  -1.53531977290923E-13   4.60539780249690E-16   8.93014223849610E-01   8.93014223849610E-01
      0.00000000000000E+00   0.00000000000000E+00   1.53499279992455E-13   4.66180786641915E-21   1.53499284654262E-13
      9.29673210473212E-16  -5.00000000000000E-01  -5.00000000000000E-01   0.00000000000000E+00   0.00000000000000E+00
      0.00000000000000E+00   0.00000000000000E+00   0.00000000000000E+00  -6.34364596338150E-16
      1.00000000000000E+00
      0.00000000000000E+00   0.00000000000000E+00   0.00000000000000E+00   0.00000000000000E+00  -4.48360130480762E-13
     -5.43839925203904E-20  -4.48360184864755E-13   4.56132948309904E-16   1.00000000000000E+00   1.00000000000000E+00
      0.00000000000000E+00   0.00000000000000E+00   4.48382642254345E-13   4.66515990085324E-21   4.48382646919505E-13
      9.61471485210975E-16  -5.00000000000000E-01  -5.00000000000000E-01   0.00000000000000E+00   0.00000000000000E+00
      0.00000000000000E+00   0.00000000000000E+00   0.00000000000000E+00  -6.57871614146643E-16
      0.00000000000000E+00
      0.00000000000000E+00   0.00000000000000E+00   0.00000000000000E+00   0.00000000000000E+00  -4.48361054203230E-13
     -5.43839949525790E-20  -4.48361108587225E-13   4.56132948208835E-16   1.00000000000000E+00   1.00000000000000E+00
      0.00000000000000E+00   0.00000000000000E+00   4.48321917981262E-13   4.66515990084327E-21   4.48321922646422E-13
      9.61471485143290E-16  -5.00000000000000E-01  -5.00000000000000E-01   0.00000000000000E+00   0.00000000000000E+00
      0.00000000000000E+00   0.00000000000000E+00   0.00000000000000E+00  -6.57871614708860E-16
      1.00000000000000E-03
      0.00000000000000E+00   0.00000000000000E+00   0.00000000000000E+00   0.00000000000000E+00  -4.51794203465536E-13
     -5.44343602177811E-20  -4.51794257899896E-13   4.55972884947210E-16   1.00000000000000E+00   1.00000000000000E+00
      0.00000000000000E+00   0.00000000000000E+00   4.51812603998670E-13   4.66514912404359E-21   4.51812608663819E-13
      9.61058027448984E-16  -4.98000000000000E-01  -4.98000000000000E-01   0.00000000000000E+00   0.00000000000000E+00
      0.00000000000000E+00   0.00000000000000E+00   0.00000000000000E+00  -6.56246317750126E-16
      2.17333333333333E-03
      0.00000000000000E+00   0.00000000000000E+00   0.00000000000000E+00   0.00000000000000E+00  -4.55931130630297E-13
     -5.44955316064936E-20  -4.55931185125828E-13   4.55784260243888E-16   1.00000000000000E+00   1.00000000000000E+00
      0.00000000000000E+00   0.00000000000000E+00   4.55953456055049E-13   4.66513640553678E-21   4.55953460720186E-13
      9.60572312456131E-16  -4.95653333333333E-01  -4.95653333333333E-01   0.00000000000000E+00   0.00000000000000E+00
      0.00000000000000E+00   0.00000000000000E+00   0.00000000000000E+00  -6.54344920478233E-16
      3.56568888888889E-03
      0.00000000000000E+00   0.00000000000000E+00   0.00000000000000E+00   0.00000000000000E+00  -4.60914952543062E-13
     -5.45711849832454E-20  -4.60915007114247E-13   4.55559259784094E-16   1.00000000000000E+00   1.00000000000000E+00
      0.00000000000000E+00   0.00000000000000E+00   4.60937348700393E-13   4.66512120806483E-21   4.60937353365515E-13
      9.59995098110126E-16  -4.92868622222222E-01  -4.92868622222222E-01   0.00000000000000E+00   0.00000000000000E+00
      0.00000000000000E+00   0.00000000000000E+00   0.00000000000000E+00  -6.52096584518403E-16
      5.21795081481481E-03
      0.00000000000000E+00   0.00000000000000E+00   0.00000000000000E+00   0.00000000000000E+00  -4.66996322766176E-13
     -5.46652134581329E-20  -4.66996377431389E-13   4.55290595126986E-16   1.00000000000000E+00   1.00000000000000E+00
      0.00000000000000E+00   0.00000000000000E+00   4.67018045879546E-13   4.66510302464968E-21   4.67018050544649E-13
      9.59308963274495E-16  -4.89564098370370E-01  -4.89564098370370E-01   0.00000000000000E+00   0.00000000000000E+00
      0.00000000000000E+00   0.00000000000000E+00   0.00000000000000E+00  -6.49439939793400E-16
      7.17863496691358E-03
      0.00000000000000E+00   0.00000000000000E+00   0.00000000000000E+00   0.00000000000000E+00  -4.74383435740507E-13
     -5.47827647799974E-20  -4.74383490523272E-13   4.54969394608263E-16   1.00000000000000E+00   1.00000000000000E+00
      0.00000000000000E+00   0.00000000000000E+00   4.74345691020321E-13   4.66508123415890E-21   4.74345695685402E-13
      9.58493091179726E-16  -4.85642730066173E-01  -4.85642730066173E-01   0.00000000000000E+00   0.00000000000000E+00
      0.00000000000000E+00   0.00000000000000E+00   0.00000000000000E+00  -6.46303664114161E-16
      9.50531349407078E-03
      0.00000000000000E+00   0.00000000000000E+00   0.00000000000000E+00   0.00000000000000E+00  -4.83489182581132E-13
     -5.49306259681515E-20  -4.83489237511758E-13   4.54584806977587E-16   1.00000000000000E+00   1.00000000000000E+00
      0.00000000000000E+00   0.00000000000000E+00   4.83450744852247E-13   4.66505507123831E-21   4.83450749517302E-13
      9.57522574083476E-16  -4.80989373011858E-01  -4.80989373011858E-01   0.00000000000000E+00   0.00000000000000E+00
      0.00000000000000E+00   0.00000000000000E+00   0.00000000000000E+00  -6.42605310054868E-16
      1.22663053462973E-02
      0.00000000000000E+00   0.00000000000000E+00   0.00000000000000E+00   0.00000000000000E+00  -4.94684037850326E-13
     -5.51177599586210E-20  -4.94684092968086E-13   4.54123479907388E-16   1.00000000000000E+00   1.00000000000000E+00
      0.00000000000000E+00   0.00000000000000E+00   4.94722844244378E-13   4.66502358610689E-21   4.94722848909401E-13
      9.56367558170536E-16  -4.75467389307405E-01  -4.75467389307405E-01   0.00000000000000E+00   0.00000000000000E+00
      0.00000000000000E+00   0.00000000000000E+00   0.00000000000000E+00  -6.38250266703114E-16
      1.55426823442728E-02
      0.00000000000000E+00   0.00000000000000E+00   0.00000000000000E+00   0.00000000000000E+00  -5.08691459979329E-13
     -5.53560201350506E-20  -5.08691515335349E-13   4.53568863859687E-16   1.00000000000000E+00   1.00000000000000E+00
      0.00000000000000E+00   0.00000000000000E+00   5.08661407864930E-13   4.66498558985029E-21   5.08661412529916E-13
      9.54992182594050E-16  -4.68914635311454E-01  -4.68914635311454E-01   0.00000000000000E+00   0.00000000000000E+00
      0.00000000000000E+00   0.00000000000000E+00   0.00000000000000E+00  -6.33131076690716E-16
      1.94306497152037E-02
      0.00000000000000E+00   0.00000000000000E+00   0.00000000000000E+00   0.00000000000000E+00  -5.26251151817519E-13
     -5.56610683131428E-20  -5.26251207478587E-13   4.52900267192665E-16   1.00000000000000E+00   1.00000000000000E+00
      0.00000000000000E+00   0.00000000000000E+00   5.26200886469775E-13   4.66493957837230E-21   5.26200891134715E-13
      9.53353246931691E-16  -4.61138700569592E-01  -4.61138700569592E-01   0.00000000000000E+00   0.00000000000000E+00
      0.00000000000000E+00   0.00000000000000E+00   0.00000000000000E+00  -6.27127499549987E-16
      2.40443709953751E-02
      0.00000000000000E+00   0.00000000000000E+00   0.00000000000000E+00   0.00000000000000E+00  -5.48641775586136E-13
     -5.60536084451773E-20  -5.48641831639744E-13   4.52091546725902E-16   1.00000000000000E+00   1.00000000000000E+00
      0.00000000000000E+00   0.00000000000000E+00   5.48642362792466E-13   4.66488362366017E-21   5.48642367457349E-13
      9.51398507535065E-16  -4.51911258009250E-01  -4.51911258009250E-01   0.00000000000000E+00   0.00000000000000E+00
      0.00000000000000E+00   0.00000000000000E+00   0.00000000000000E+00  -6.20108027149004E-16
      2.95193202478451E-02
      0.00000000000000E+00   0.00000000000000E+00   0.00000000000000E+00   0.00000000000000E+00  -5.77653300739244E-13
     -5.65611960752134E-20  -5.77653357300440E-13   4.51109254249633E-16   1.00000000000000E+00   1.00000000000000E+00
      0.00000000000000E+00   0.00000000000000E+00   5.77696851162496E-13   4.66481521344985E-21   5.77696855827311E-13
      9.49064447656446E-16  -4.40961359504310E-01  -4.40961359504310E-01   0.00000000000000E+00   0.00000000000000E+00
      0.00000000000000E+00   0.00000000000000E+00   0.00000000000000E+00  -6.11934093618549E-16
      3.59432607040766E-02
      0.00000000000000E+00   0.00000000000000E+00   0.00000000000000E+00   0.00000000000000E+00  -6.15573033006432E-13
     -5.72142606165606E-20  -6.15573090220693E-13   4.49923623953379E-16   1.00000000000000E+00   1.00000000000000E+00
      0.00000000000000E+00   0.00000000000000E+00   6.15603913955222E-13   4.66473197060336E-21   6.15603918619954E-13
      9.46304762939372E-16  -4.28113478591847E-01  -4.28113478591847E-01   0.00000000000000E+00   0.00000000000000E+00
      0.00000000000000E+00   0.00000000000000E+00   0.00000000000000E+00  -6.02574122590979E-16
      4.34806841727216E-02
      0.00000000000000E+00   0.00000000000000E+00   0.00000000000000E+00   0.00000000000000E+00  -6.66370410810972E-13
     -5.80647005094003E-20  -6.66370468875672E-13   4.48483920900060E-16   1.00000000000000E+00   1.00000000000000E+00
      0.00000000000000E+00   0.00000000000000E+00   6.66375256377606E-13   4.66462984860017E-21   6.66375261042235E-13
      9.43035662961078E-16  -4.13038631654557E-01  -4.13038631654557E-01   0.00000000000000E+00   0.00000000000000E+00
      0.00000000000000E+00   0.00000000000000E+00   0.00000000000000E+00  -5.91936641904082E-16
      5.23245943759316E-02
      0.00000000000000E+00   0.00000000000000E+00   0.00000000000000E+00   0.00000000000000E+00  -7.36637894425341E-13
     -5.92036086601983E-20  -7.36637953628950E-13   4.46722742316702E-16   1.00000000000000E+00   1.00000000000000E+00