DF-ISE text

Info {
  version   = 1.0
  type      = xyplot
  datasets  = [
    "time"
    "S OuterVoltage" "S InnerVoltage" "S QuasiFermiPotential" "S DisplacementCurrent" "S eCurrent"
    "S hCurrent" "S TotalCurrent" "S Charge" "D OuterVoltage" "D InnerVoltage"
    "D QuasiFermiPotential" "D DisplacementCurrent" "D eCurrent" "D hCurrent" "D TotalCurrent"
    "D Charge" "G OuterVoltage" "G InnerVoltage" "G QuasiFermiPotential" "G DisplacementCurrent"
    "G eCurrent" "G hCurrent" "G TotalCurrent" "G Charge" ]
  functions = [
    Time
    OuterVoltage InnerVoltage QuasiFermiPotential DisplacementCurrent eCurrent
    hCurrent TotalCurrent Charge OuterVoltage InnerVoltage
    QuasiFermiPotential DisplacementCurrent eCurrent hCurrent TotalCurrent
    Charge OuterVoltage InnerVoltage QuasiFermiPotential DisplacementCurrent
    eCurrent hCurrent TotalCurrent Charge ]
}

Data {
      0.00000000000000E+00
      0.00000000000000E+00   0.00000000000000E+00   0.00000000000000E+00   0.00000000000000E+00   9.63935521239945E-19
     -1.08318252701465E-34   9.63935521239945E-19   3.30257183987774E-16   0.00000000000000E+00   0.00000000000000E+00
      0.00000000000000E+00   0.00000000000000E+00  -1.44739048849480E-21  -9.84456683527172E-35  -1.44739048849490E-21
      4.87414620094380E-16  -5.00000000000000E-01  -5.00000000000000E-01   0.00000000000000E+00   0.00000000000000E+00
      0.00000000000000E+00   0.00000000000000E+00   0.00000000000000E+00  -3.92301142137940E-16
      0.00000000000000E+00
      0.00000000000000E+00   0.00000000000000E+00   0.00000000000000E+00   0.00000000000000E+00   9.41379401273008E-19
      2.81399965652074E-30   9.41379401275822E-19   3.30257183763515E-16   0.00000000000000E+00   0.00000000000000E+00
      0.00000000000000E+00   0.00000000000000E+00   5.73430557770363E-18   2.81612787725932E-30   5.73430557770645E-18
      4.87414619869287E-16  -5.00000000000000E-01  -5.00000000000000E-01   0.00000000000000E+00   0.00000000000000E+00
      0.00000000000000E+00   0.00000000000000E+00   0.00000000000000E+00  -3.92301142252301E-16
      1.00000000000000E-03
      0.00000000000000E+00   0.00000000000000E+00   0.00000000000000E+00   0.00000000000000E+00  -1.01688819230493E-18
     -3.73332311561614E-22  -1.01726152461649E-18   3.30216732735023E-16   1.00000000000000E-03   1.00000000000000E-03
      0.00000000000000E+00   0.00000000000000E+00  -8.51687230434819E-18   5.77864901093947E-22  -8.51629443944709E-18
      4.87646126504967E-16  -5.00000000000000E-01  -5.00000000000000E-01   0.00000000000000E+00   0.00000000000000E+00
      0.00000000000000E+00   0.00000000000000E+00   0.00000000000000E+00  -3.92722568651012E-16
      2.17333333333333E-03
      0.00000000000000E+00   0.00000000000000E+00   0.00000000000000E+00   0.00000000000000E+00  -6.90018395798576E-18
     -8.13377476051333E-22  -6.90099733546181E-18   3.30169606197468E-16   2.17333333333333E-03   2.17333333333333E-03
      0.00000000000000E+00   0.00000000000000E+00   8.79096837454939E-18   1.24351498773814E-21   8.79221188953713E-18
      4.87918100475689E-16  -5.00000000000000E-01  -5.00000000000000E-01   0.00000000000000E+00   0.00000000000000E+00
      0.00000000000000E+00   0.00000000000000E+00   0.00000000000000E+00  -3.93213953061628E-16
      3.56568888888889E-03
      0.00000000000000E+00   0.00000000000000E+00   0.00000000000000E+00   0.00000000000000E+00  -2.15178580480443E-18
     -1.33821098614352E-21  -2.15312401579057E-18   3.30114152161958E-16   3.56568888888889E-03   3.56568888888889E-03
      0.00000000000000E+00   0.00000000000000E+00   7.02804788992262E-18   2.01614580120554E-21   7.03006403572383E-18
      4.88241316453136E-16  -5.00000000000000E-01  -5.00000000000000E-01   0.00000000000000E+00   0.00000000000000E+00
      0.00000000000000E+00   0.00000000000000E+00   0.00000000000000E+00  -3.93792749011155E-16
      5.21795081481481E-03
      0.00000000000000E+00   0.00000000000000E+00   0.00000000000000E+00   0.00000000000000E+00  -5.15847130800238E-18
     -1.96447405329559E-21  -5.16043578205568E-18   3.30049005522069E-16   5.21795081481481E-03   5.21795081481481E-03
      0.00000000000000E+00   0.00000000000000E+00  -2.40913899295939E-18   2.90881027033848E-21  -2.40623018268905E-18
      4.88625529245280E-16  -5.00000000000000E-01  -5.00000000000000E-01   0.00000000000000E+00   0.00000000000000E+00
      0.00000000000000E+00   0.00000000000000E+00   0.00000000000000E+00  -3.94473537443715E-16
      7.17863496691358E-03
      0.00000000000000E+00   0.00000000000000E+00   0.00000000000000E+00   0.00000000000000E+00  -6.27370671385674E-18
     -2.71206888492937E-21  -6.27641878274167E-18   3.29972621331173E-16   7.17863496691358E-03   7.17863496691358E-03
      0.00000000000000E+00   0.00000000000000E+00   7.31209578694225E-18   3.93430329818648E-21   7.31603009024043E-18
      4.89082388771653E-16  -5.00000000000000E-01  -5.00000000000000E-01   0.00000000000000E+00   0.00000000000000E+00
      0.00000000000000E+00   0.00000000000000E+00   0.00000000000000E+00  -3.95272935620168E-16
      9.50531349407078E-03
      0.00000000000000E+00   0.00000000000000E+00   0.00000000000000E+00   0.00000000000000E+00  -4.43957802094695E-18
     -3.60471238907472E-21  -4.44318273333603E-18   3.29883269716125E-16   9.50531349407078E-03   9.50531349407078E-03
      0.00000000000000E+00   0.00000000000000E+00   9.46045101078907E-18   5.10413688395593E-21   9.46555514767302E-18
      4.89625821454480E-16  -5.00000000000000E-01  -5.00000000000000E-01   0.00000000000000E+00   0.00000000000000E+00
      0.00000000000000E+00   0.00000000000000E+00   0.00000000000000E+00  -3.96209717381885E-16
      1.22663053462973E-02
      0.00000000000000E+00   0.00000000000000E+00   0.00000000000000E+00   0.00000000000000E+00  -7.48473008898450E-18
     -4.67048633243461E-21  -7.48940057531693E-18   3.29779040112442E-16   1.22663053462973E-02   1.22663053462973E-02
      0.00000000000000E+00   0.00000000000000E+00   3.95967964703323E-18   6.42704381804708E-21   3.96610669085127E-18
      4.90272492411346E-16  -5.00000000000000E-01  -5.00000000000000E-01   0.00000000000000E+00   0.00000000000000E+00
      0.00000000000000E+00   0.00000000000000E+00   0.00000000000000E+00  -3.97304861990461E-16
      1.55426823442728E-02
      0.00000000000000E+00   0.00000000000000E+00   0.00000000000000E+00   0.00000000000000E+00   6.39662544716819E-20
     -5.94232626426896E-21   5.80239282074129E-20   3.29657857095559E-16   1.55426823442728E-02   1.55426823442728E-02
      0.00000000000000E+00   0.00000000000000E+00   8.04783056188127E-18   7.90688322736516E-21   8.05573744510863E-18
      4.91042363692952E-16  -5.00000000000000E-01  -5.00000000000000E-01   0.00000000000000E+00   0.00000000000000E+00
      0.00000000000000E+00   0.00000000000000E+00   0.00000000000000E+00  -3.98581512192053E-16
      1.94306497152037E-02
      0.00000000000000E+00   0.00000000000000E+00   0.00000000000000E+00   0.00000000000000E+00  -2.07197635539870E-18
     -7.45827124721733E-21  -2.07943462664591E-18   3.29517513856417E-16   1.94306497152037E-02   1.94306497152037E-02
      0.00000000000000E+00   0.00000000000000E+00   2.63627755726516E-18   9.53990710958015E-21   2.64581746437474E-18
      4.91959369708400E-16  -5.00000000000000E-01  -5.00000000000000E-01   0.00000000000000E+00   0.00000000000000E+00
      0.00000000000000E+00   0.00000000000000E+00   0.00000000000000E+00  -4.00064787381308E-16
      2.40443709953751E-02
      0.00000000000000E+00   0.00000000000000E+00   0.00000000000000E+00   0.00000000000000E+00  -1.38314397575133E-18
     -9.26126887270421E-21  -1.39240524462404E-18   3.29355724045913E-16   2.40443709953751E-02   2.40443709953751E-02
      0.00000000000000E+00   0.00000000000000E+00   1.44093571583322E-17   1.13114293352012E-20   1.44206685876674E-17
      4.93052228311155E-16  -5.00000000000000E-01  -5.00000000000000E-01   0.00000000000000E+00   0.00000000000000E+00
      0.00000000000000E+00   0.00000000000000E+00   0.00000000000000E+00  -4.01781443170308E-16
      2.95193202478451E-02
      0.00000000000000E+00   0.00000000000000E+00   0.00000000000000E+00   0.00000000000000E+00  -1.45656065116305E-17
     -1.13981860553884E-20  -1.45770046976859E-17   3.29170191368140E-16   2.95193202478451E-02   2.95193202478451E-02
      0.00000000000000E+00   0.00000000000000E+00   1.36463282037944E-17   1.31922291853161E-20   1.36595204329797E-17
      4.94355407641008E-16  -5.00000000000000E-01  -5.00000000000000E-01   0.00000000000000E+00   0.00000000000000E+00
      0.00000000000000E+00   0.00000000000000E+00   0.00000000000000E+00  -4.03759376218318E-16
      3.60162600274429E-02
      0.00000000000000E+00   0.00000000000000E+00   0.00000000000000E+00   0.00000000000000E+00  -5.77932673200867E-18
     -1.39176240299816E-20  -5.79324435603865E-18   3.28958686326589E-16   3.60162600274429E-02   3.60162600274429E-02
      0.00000000000000E+00   0.00000000000000E+00   1.72009226947387E-17   1.51354543358052E-20   1.72160581490745E-17
      4.95910262559842E-16  -5.00000000000000E-01  -5.00000000000000E-01   0.00000000000000E+00   0.00000000000000E+00
      0.00000000000000E+00   0.00000000000000E+00   0.00000000000000E+00  -4.06027054522112E-16
      4.36393360355042E-02
      0.00000000000000E+00   0.00000000000000E+00   0.00000000000000E+00   0.00000000000000E+00  -1.34509416939708E-17
     -1.68335456710112E-20  -1.34677752396419E-17   3.28721723977074E-16   4.36393360355042E-02   4.36393360355042E-02
      0.00000000000000E+00   0.00000000000000E+00   1.06305984347070E-17   1.70556135969032E-20   1.06476540483039E-17
      4.97745419938534E-16  -5.00000000000000E-01  -5.00000000000000E-01   0.00000000000000E+00   0.00000000000000E+00
      0.00000000000000E+00   0.00000000000000E+00   0.00000000000000E+00  -4.08584685866032E-16
      5.26853862317371E-02
      0.00000000000000E+00   0.00000000000000E+00   0.00000000000000E+00   0.00000000000000E+00  -1.61570840955557E-17
     -2.02148966647752E-20  -1.61772989922205E-17   3.28454839040021E-16   5.26853862317371E-02   5.26853862317371E-02
      0.00000000000000E+00   0.00000000000000E+00   1.90708471878624E-17   1.88960639912416E-20   1.90897432518536E-17
      4.99936786070646E-16  -5.00000000000000E-01  -5.00000000000000E-01   0.00000000000000E+00   0.00000000000000E+00
      0.00000000000000E+00   0.00000000000000E+00   0.00000000000000E+00  -4.11487371772058E-16
      6.32994184619836E-02
      0.00000000000000E+00   0.00000000000000E+00   0.00000000000000E+00   0.00000000000000E+00  -1.36808542067933E-17
     -2.40489574694821E-20  -1.37049031642628E-17   3.28159173256146E-16   6.32994184619836E-02   6.32994184619836E-02
      0.00000000000000E+00   0.00000000000000E+00   1.38974740068727E-17   2.05524082945763E-20   1.39180264151672E-17
      5.02524444770777E-16  -5.00000000000000E-01  -5.00000000000000E-01   0.00000000000000E+00   0.00000000000000E+00
      0.00000000000000E+00   0.00000000000000E+00   0.00000000000000E+00  -4.14730199525334E-16
      7.57532162788061E-02
      0.00000000000000E+00   0.00000000000000E+00   0.00000000000000E+00   0.00000000000000E+00  -1.89666873989993E-17
     -2.83456290585355E-20  -1.89950330280578E-17   3.27832639307037E-16   7.57532162788061E-02   7.57532162788061E-02
      0.00000000000000E+00   0.00000000000000E+00   1.53546159547015E-17   2.19538974281733E-20   1.53765698521296E-17
      5.05579504324622E-16  -5.00000000000000E-01  -5.00000000000000E-01   0.00000000000000E+00   0.00000000000000E+00
      0.00000000000000E+00   0.00000000000000E+00   0.00000000000000E+00  -4.18342679180314E-16
      9.03656723838780E-02
      0.00000000000000E+00   0.00000000000000E+00   0.00000000000000E+00   0.00000000000000E+00  -2.91662057781356E-17
     -3.31085993464275E-20  -2.91993143774820E-17   3.27472145050791E-16   9.03656723838780E-02   9.03656723838780E-02
      0.00000000000000E+00   0.00000000000000E+00   2.24251106243172E-17   2.30551690740008E-20   2.24481657933912E-17
      5.09184611823020E-16  -5.00000000000000E-01  -5.00000000000000E-01   0.00000000000000E+00   0.00000000000000E+00
      0.00000000000000E+00   0.00000000000000E+00   0.00000000000000E+00  -4.22363464449258E-16
      1.07510954213829E-01
      0.00000000000000E+00   0.00000000000000E+00   0.00000000000000E+00   0.00000000000000E+00  -2.67576688106022E-17
     -3.83442534087564E-20  -2.67960130640110E-17   3.27073016112490E-16   1.07510954213829E-01   1.07510954213829E-01
      0.00000000000000E+00   0.00000000000000E+00   2.65810599692488E-17   2.38484895006425E-20   2.66049084587494E-17
      5.13435538276780E-16  -5.00000000000000E-01  -5.00000000000000E-01   0.00000000000000E+00   0.00000000000000E+00
      0.00000000000000E+00   0.00000000000000E+00   0.00000000000000E+00  -4.26845082545145E-16
      1.27628084894305E-01
      0.00000000000000E+00   0.00000000000000E+00   0.00000000000000E+00   0.00000000000000E+00  -3.70682672475908E-17
     -4.40736760916563E-20  -3.71123409236824E-17   3.26628475584976E-16   1.27628084894305E-01   1.27628084894305E-01
      0.00000000000000E+00   0.00000000000000E+00   3.72903413407207E-17   2.43663674153851E-20   3.73147077081361E-17
      5.18443195290606E-16  -5.00000000000000E-01  -5.00000000000000E-01   0.00000000000000E+00   0.00000000000000E+00
      0.00000000000000E+00   0.00000000000000E+00   0.00000000000000E+00  -4.31858235380847E-16
      1.51232184892730E-01
      0.00000000000000E+00   0.00000000000000E+00   0.00000000000000E+00   0.00000000000000E+00  -4.46502264550968E-17
     -5.03589968113411E-20  -4.47005854519081E-17   3.26128928307340E-16   1.51232184892730E-01   1.51232184892730E-01
      0.00000000000000E+00   0.00000000000000E+00   3.75403323853059E-17   2.46721470359130E-20   3.75650045323419E-17
      5.24335909149135E-16  -5.00000000000000E-01  -5.00000000000000E-01   0.00000000000000E+00   0.00000000000000E+00
      0.00000000000000E+00   0.00000000000000E+00   0.00000000000000E+00  -4.37498211229345E-16
      1.78927662224215E-01
      0.00000000000000E+00   0.00000000000000E+00   0.00000000000000E+00   0.00000000000000E+00  -4.22660746379367E-17
     -5.73904060447375E-20  -4.23234650439815E-17   3.25560223276276E-16   1.78927662224215E-01   1.78927662224215E-01
      0.00000000000000E+00   0.00000000000000E+00   3.97394305919284E-17   2.48400610892429E-20   3.97642706530176E-17
      5.31261269379301E-16  -5.00000000000000E-01  -5.00000000000000E-01   0.00000000000000E+00   0.00000000000000E+00
      0.00000000000000E+00   0.00000000000000E+00   0.00000000000000E+00  -4.43901513312898E-16
      2.11423688959824E-01
      0.00000000000000E+00   0.00000000000000E+00   0.00000000000000E+00   0.00000000000000E+00  -5.54645903796035E-17
     -6.56826816082019E-20  -5.55302730612117E-17   3.24900797976189E-16   2.11423688959824E-01   2.11423688959824E-01
      0.00000000000000E+00   0.00000000000000E+00   5.42049405569876E-17   2.49336955697737E-20   5.42298742525573E-17
      5.39387600768049E-16  -5.00000000000000E-01  -5.00000000000000E-01   0.00000000000000E+00   0.00000000000000E+00
      0.00000000000000E+00   0.00000000000000E+00   0.00000000000000E+00  -4.51274510021913E-16
      2.49552360329606E-01
      0.00000000000000E+00   0.00000000000000E+00   0.00000000000000E+00   0.00000000000000E+00  -7.10489578635646E-17
     -7.62974418765861E-20  -7.11252553054411E-17   3.24120770235409E-16   2.49552360329606E-01   2.49552360329606E-01
      0.00000000000000E+00   0.00000000000000E+00   7.03532816551088E-17   2.49929015602914E-20   7.03782745566691E-17
      5.48907997333450E-16  -5.00000000000000E-01  -5.00000000000000E-01   0.00000000000000E+00   0.00000000000000E+00
      0.00000000000000E+00   0.00000000000000E+00   0.00000000000000E+00  -4.59905718794919E-16
      2.93781619118552E-01
      0.00000000000000E+00   0.00000000000000E+00   0.00000000000000E+00   0.00000000000000E+00  -1.06584816975496E-16
     -9.08329551245167E-20  -1.06675649930621E-16   3.23195394605178E-16   2.93781619118552E-01   2.93781619118552E-01
      0.00000000000000E+00   0.00000000000000E+00   1.15248949627535E-16   2.50427150647950E-20   1.15273992342599E-16
      5.59921969295777E-16  -5.00000000000000E-01  -5.00000000000000E-01   0.00000000000000E+00   0.00000000000000E+00
      0.00000000000000E+00   0.00000000000000E+00   0.00000000000000E+00  -4.70026896578062E-16
      3.45087559313730E-01
      0.00000000000000E+00   0.00000000000000E+00   0.00000000000000E+00   0.00000000000000E+00  -1.48841241763833E-16
     -1.10883672390535E-19  -1.48952125436223E-16   3.22103978114860E-16   3.45087559313730E-01   3.45087559313730E-01
      0.00000000000000E+00   0.00000000000000E+00   1.63591219020217E-16   2.51019141942269E-20   1.63616320934411E-16
      5.72667794282466E-16  -5.00000000000000E-01  -5.00000000000000E-01   0.00000000000000E+00   0.00000000000000E+00
      0.00000000000000E+00   0.00000000000000E+00   0.00000000000000E+00  -4.81851232693528E-16
      4.05286529142739E-01
      0.00000000000000E+00   0.00000000000000E+00   0.00000000000000E+00   0.00000000000000E+00  -2.42387335309069E-16
     -1.36845671752529E-19  -2.42524180980822E-16   3.20834217165941E-16   4.05286529142739E-01   4.05286529142739E-01
      0.00000000000000E+00   0.00000000000000E+00   2.46636403089118E-16   2.51820987095939E-20   2.46661585187827E-16
      5.87612687765697E-16  -5.00000000000000E-01  -5.00000000000000E-01   0.00000000000000E+00   0.00000000000000E+00
      0.00000000000000E+00   0.00000000000000E+00   0.00000000000000E+00  -4.95533628460341E-16
      4.75117334144390E-01
      0.00000000000000E+00   0.00000000000000E+00   0.00000000000000E+00   0.00000000000000E+00  -4.34996558690794E-16
     -1.65190576938237E-19  -4.35161749267732E-16   3.19422162758011E-16   4.75117334144390E-01   4.75117334144390E-01
      0.00000000000000E+00   0.00000000000000E+00   4.31371289299206E-16   2.52828696197197E-20   4.31396572168825E-16
      6.04973434706928E-16  -5.00000000000000E-01  -5.00000000000000E-01   0.00000000000000E+00   0.00000000000000E+00
      0.00000000000000E+00   0.00000000000000E+00   0.00000000000000E+00  -5.10740695626782E-16
      5.56121067946304E-01
      0.00000000000000E+00   0.00000000000000E+00   0.00000000000000E+00   0.00000000000000E+00  -8.14590374542506E-16
     -1.87401664127733E-19  -8.14777776206634E-16   3.17904851907289E-16   5.56121067946304E-01   5.56121067946304E-01
      0.00000000000000E+00   0.00000000000000E+00   8.24297016562548E-16   2.54004846698147E-20   8.24322417047218E-16
      6.25170420191658E-16  -5.00000000000000E-01  -5.00000000000000E-01   0.00000000000000E+00   0.00000000000000E+00
      0.00000000000000E+00   0.00000000000000E+00   0.00000000000000E+00  -5.27164194859231E-16
      6.49005349372499E-01
      0.00000000000000E+00   0.00000000000000E+00   0.00000000000000E+00   0.00000000000000E+00  -1.65161126933139E-15
     -2.07795464974280E-19  -1.65181906479637E-15   3.16212550605014E-16   6.49005349372499E-01   6.49005349372499E-01
      0.00000000000000E+00   0.00000000000000E+00   1.65520883547784E-15   2.55346268373222E-20   1.65523437010468E-15
      6.48303337140529E-16  -5.00000000000000E-01  -5.00000000000000E-01   0.00000000000000E+00   0.00000000000000E+00
      0.00000000000000E+00   0.00000000000000E+00   0.00000000000000E+00  -5.45522145906034E-16
      7.56751115826886E-01
      0.00000000000000E+00   0.00000000000000E+00   0.00000000000000E+00   0.00000000000000E+00  -3.75287855534529E-15
     -2.24477717977329E-19  -3.75310303306326E-15   3.14300080505456E-16   7.56751115826886E-01   7.56751115826886E-01
      0.00000000000000E+00   0.00000000000000E+00   3.74826851580325E-15   2.56891843272965E-20   3.74829420498758E-15
      6.75083896545012E-16  -5.00000000000000E-01  -5.00000000000000E-01   0.00000000000000E+00   0.00000000000000E+00
      0.00000000000000E+00   0.00000000000000E+00   0.00000000000000E+00  -5.66373104903470E-16
      8.81736204913974E-01
      0.00000000000000E+00   0.00000000000000E+00   0.00000000000000E+00   0.00000000000000E+00  -9.32605761441897E-15
     -2.31130751632813E-19  -9.32628874517061E-15   3.12158259846341E-16   8.81736204913974E-01   8.81736204913974E-01
      0.00000000000000E+00   0.00000000000000E+00   9.32481460088438E-15   2.58670395116500E-20   9.32484046792389E-15
      7.06074548469246E-16  -5.00000000000000E-01  -5.00000000000000E-01   0.00000000000000E+00   0.00000000000000E+00
      0.00000000000000E+00   0.00000000000000E+00   0.00000000000000E+00  -5.89945468747905E-16
      1.00000000000000E+00
      0.00000000000000E+00   0.00000000000000E+00   0.00000000000000E+00   0.00000000000000E+00  -2.13859110773215E-14
     -2.32486236478839E-19  -2.13861435635580E-14   3.10153263144284E-16   1.00000000000000E+00   1.00000000000000E+00
      0.00000000000000E+00   0.00000000000000E+00   2.13802909850514E-14   2.60333887581059E-20   2.13803170184402E-14
      7.35282139754137E-16  -5.00000000000000E-01  -5.00000000000000E-01   0.00000000000000E+00   0.00000000000000E+00
      0.00000000000000E+00   0.00000000000000E+00   0.00000000000000E+00  -6.12172030117185E-16
      0.00000000000000E+00
      0.00000000000000E+00   0.00000000000000E+00   0.00000000000000E+00   0.00000000000000E+00  -2.13858019476249E-14
     -2.32486337746290E-19  -2.13860344339627E-14   3.10153262518235E-16   1.00000000000000E+00   1.00000000000000E+00
      0.00000000000000E+00   0.00000000000000E+00   2.13880832765700E-14   2.60333887528989E-20   2.13881093099588E-14
      7.35282139330159E-16  -5.00000000000000E-01  -5.00000000000000E-01   0.00000000000000E+00   0.00000000000000E+00
      0.00000000000000E+00   0.00000000000000E+00   0.00000000000000E+00  -6.12172035843275E-16
      1.00000000000000E-03
      0.00000000000000E+00   0.00000000000000E+00   0.00000000000000E+00   0.00000000000000E+00  -2.16150626113198E-14
     -2.30366287734409E-19  -2.16152929776075E-14   3.10036586599569E-16   1.00000000000000E+00   1.00000000000000E+00
      0.00000000000000E+00   0.00000000000000E+00   2.16299742659936E-14   2.60324241008572E-20   2.16300002984177E-14
      7.34915728459966E-16  -4.98000000000000E-01  -4.98000000000000E-01   0.00000000000000E+00   0.00000000000000E+00
      0.00000000000000E+00   0.00000000000000E+00   0.00000000000000E+00  -6.10426332367789E-16
      2.16000000000000E-03
      0.00000000000000E+00   0.00000000000000E+00   0.00000000000000E+00   0.00000000000000E+00  -2.18973674148485E-14
     -2.27944761333279E-19  -2.18975953596099E-14   3.09900339533726E-16   1.00000000000000E+00   1.00000000000000E+00
      0.00000000000000E+00   0.00000000000000E+00   2.18955593581971E-14   2.60312964551018E-20   2.18955853894936E-14
      7.34489812041510E-16  -4.95680000000000E-01  -4.95680000000000E-01   0.00000000000000E+00   0.00000000000000E+00
      0.00000000000000E+00   0.00000000000000E+00   0.00000000000000E+00  -6.08409904189020E-16
      3.53653333333333E-03
      0.00000000000000E+00   0.00000000000000E+00   0.00000000000000E+00   0.00000000000000E+00  -2.22243540773435E-14
     -2.25123389991327E-19  -2.22245792007335E-14   3.09737381441589E-16   1.00000000000000E+00   1.00000000000000E+00
      0.00000000000000E+00   0.00000000000000E+00   2.22265039971993E-14   2.60299461899716E-20   2.22265300271455E-14
      7.33983168113816E-16  -4.92926933333333E-01  -4.92926933333333E-01   0.00000000000000E+00   0.00000000000000E+00
      0.00000000000000E+00   0.00000000000000E+00   0.00000000000000E+00  -6.06029171578750E-16
      5.17001955555556E-03
      0.00000000000000E+00   0.00000000000000E+00   0.00000000000000E+00   0.00000000000000E+00  -2.26243958422901E-14
     -2.21849167225558E-19  -2.26246176914573E-14   3.09542164265775E-16   1.00000000000000E+00   1.00000000000000E+00
      0.00000000000000E+00   0.00000000000000E+00   2.26388958792788E-14   2.60283266194254E-20   2.26389219076054E-14
      7.33380228118008E-16  -4.89659960888889E-01  -4.89659960888889E-01   0.00000000000000E+00   0.00000000000000E+00
      0.00000000000000E+00   0.00000000000000E+00   0.00000000000000E+00  -6.03221347669374E-16
      7.08664338962963E-03
      0.00000000000000E+00   0.00000000000000E+00   0.00000000000000E+00   0.00000000000000E+00  -2.31287121641932E-14
     -2.18107188054054E-19  -2.31289302713813E-14   3.09310513362861E-16   1.00000000000000E+00   1.00000000000000E+00
      0.00000000000000E+00   0.00000000000000E+00   2.31267565630249E-14   2.60264022797301E-20   2.31267825894272E-14
      7.32670404907094E-16  -4.85826713220741E-01  -4.85826713220741E-01   0.00000000000000E+00   0.00000000000000E+00
      0.00000000000000E+00   0.00000000000000E+00   0.00000000000000E+00  -5.99951101543382E-16
      9.33548202160988E-03
      0.00000000000000E+00   0.00000000000000E+00   0.00000000000000E+00   0.00000000000000E+00  -2.37569409663144E-14
     -2.13853466665279E-19  -2.37571548197810E-14   3.09035031345785E-16   1.00000000000000E+00   1.00000000000000E+00
      0.00000000000000E+00   0.00000000000000E+00   2.37618252853086E-14   2.60241108116387E-20   2.37618513094195E-14
      7.31834276689836E-16  -4.81329035956780E-01  -4.81329035956780E-01   0.00000000000000E+00   0.00000000000000E+00
      0.00000000000000E+00   0.00000000000000E+00   0.00000000000000E+00  -5.96148150518240E-16
      1.19741193498000E-02
      0.00000000000000E+00   0.00000000000000E+00   0.00000000000000E+00   0.00000000000000E+00  -2.45087824460239E-14
     -2.09048510821057E-19  -2.45089914945347E-14   3.08706570244524E-16   1.00000000000000E+00   1.00000000000000E+00
      0.00000000000000E+00   0.00000000000000E+00   2.45056896030506E-14   2.60213751674039E-20   2.45057156244258E-14
      7.30848715967888E-16  -4.76051761300400E-01  -4.76051761300400E-01   0.00000000000000E+00   0.00000000000000E+00
      0.00000000000000E+00   0.00000000000000E+00   0.00000000000000E+00  -5.91734181375805E-16
      1.50701204815431E-02
      0.00000000000000E+00   0.00000000000000E+00   0.00000000000000E+00   0.00000000000000E+00  -2.54699447120104E-14
     -2.03662837215426E-19  -2.54701483748476E-14   3.08313701040254E-16   1.00000000000000E+00   1.00000000000000E+00
      0.00000000000000E+00   0.00000000000000E+00   2.54585681883515E-14   2.60180992812811E-20   2.54585942064508E-14
      7.29686104576765E-16  -4.69859759036914E-01  -4.69859759036914E-01   0.00000000000000E+00   0.00000000000000E+00
      0.00000000000000E+00   0.00000000000000E+00   0.00000000000000E+00  -5.86623434013326E-16
      1.87027618094551E-02
      0.00000000000000E+00   0.00000000000000E+00   0.00000000000000E+00   0.00000000000000E+00  -2.66806926396960E-14
     -1.97683864366440E-19  -2.66808903235603E-14   3.07841980255770E-16   1.00000000000000E+00   1.00000000000000E+00
      0.00000000000000E+00   0.00000000000000E+00   2.66914264023695E-14   2.60141621245779E-20   2.66914524165316E-14
      7.28313348129859E-16  -4.62594476381090E-01  -4.62594476381090E-01   0.00000000000000E+00   0.00000000000000E+00
      0.00000000000000E+00   0.00000000000000E+00   0.00000000000000E+00  -5.80724362074376E-16
      2.29650609675384E-02
      0.00000000000000E+00   0.00000000000000E+00   0.00000000000000E+00   0.00000000000000E+00  -2.82656963026808E-14
     -1.91125294078079E-19  -2.82658874279748E-14   3.07272910258072E-16   1.00000000000000E+00   1.00000000000000E+00
      0.00000000000000E+00   0.00000000000000E+00   2.82598696950294E-14   2.60094092865185E-20   2.82598957044387E-14
      7.26690611473905E-16  -4.54069878064923E-01  -4.54069878064923E-01   0.00000000000000E+00   0.00000000000000E+00
      0.00000000000000E+00   0.00000000000000E+00   0.00000000000000E+00  -5.73943199699987E-16
      2.79661586463562E-02
      0.00000000000000E+00   0.00000000000000E+00   0.00000000000000E+00   0.00000000000000E+00  -3.03568061623253E-14
     -1.84039680388569E-19  -3.03569902020057E-14   3.06582442097048E-16   1.00000000000000E+00   1.00000000000000E+00
      0.00000000000000E+00   0.00000000000000E+00   3.03525384691556E-14   2.60036407568430E-20   3.03525644727964E-14
      7.24769658488566E-16  -4.44067682707288E-01  -4.44067682707288E-01   0.00000000000000E+00   0.00000000000000E+00
      0.00000000000000E+00   0.00000000000000E+00   0.00000000000000E+00  -5.66190744660640E-16
      3.38341132561690E-02
      0.00000000000000E+00   0.00000000000000E+00   0.00000000000000E+00   0.00000000000000E+00  -3.31821399632566E-14
     -1.76534964761119E-19  -3.31823164982213E-14   3.05738802923836E-16   1.00000000000000E+00   1.00000000000000E+00
      0.00000000000000E+00   0.00000000000000E+00   3.31816467591962E-14   2.59965928598873E-20   3.31816727557891E-14
      7.22491620499616E-16  -4.32331773487662E-01  -4.32331773487662E-01   0.00000000000000E+00   0.00000000000000E+00
      0.00000000000000E+00   0.00000000000000E+00   0.00000000000000E+00  -5.57394417012649E-16
      4.07191799983494E-02
      0.00000000000000E+00   0.00000000000000E+00   0.00000000000000E+00   0.00000000000000E+00  -3.71472195664454E-14
     -1.68795559446777E-19  -3.71473883620048E-14   3.04699373667065E-16   1.00000000000000E+00   1.00000000000000E+00
      0.00000000000000E+00   0.00000000000000E+00   3.71536191821748E-14   2.59879114722475E-20   3.71536451700862E-14
      7.19783953142154E-16  -4.18561640003301E-01  -4.18561640003301E-01   0.00000000000000E+00   0.00000000000000E+00
      0.00000000000000E+00   0.00000000000000E+00   0.00000000000000E+00  -5.47518480891337E-16
      4.87976583091744E-02
      0.00000000000000E+00   0.00000000000000E+00   0.00000000000000E+00   0.00000000000000E+00  -4.29663713188289E-14
     -1.61106915519881E-19  -4.29665324257445E-14   3.03406411346923E-16   1.00000000000000E+00   1.00000000000000E+00