DF-ISE text

Info {
  version   = 1.0
  type      = xyplot
  datasets  = [
    "time"
    "S OuterVoltage" "S InnerVoltage" "S QuasiFermiPotential" "S DisplacementCurrent" "S eCurrent"
    "S hCurrent" "S TotalCurrent" "S Charge" "D OuterVoltage" "D InnerVoltage"
    "D QuasiFermiPotential" "D DisplacementCurrent" "D eCurrent" "D hCurrent" "D TotalCurrent"
    "D Charge" "G OuterVoltage" "G InnerVoltage" "G QuasiFermiPotential" "G DisplacementCurrent"
    "G eCurrent" "G hCurrent" "G TotalCurrent" "G Charge" ]
  functions = [
    Time
    OuterVoltage InnerVoltage QuasiFermiPotential DisplacementCurrent eCurrent
    hCurrent TotalCurrent Charge OuterVoltage InnerVoltage
    QuasiFermiPotential DisplacementCurrent eCurrent hCurrent TotalCurrent
    Charge OuterVoltage InnerVoltage QuasiFermiPotential DisplacementCurrent
    eCurrent hCurrent TotalCurrent Charge ]
}

Data {
      0.00000000000000E+00
      0.00000000000000E+00   0.00000000000000E+00   0.00000000000000E+00   0.00000000000000E+00  -1.80670519513000E-25
     -8.59210189269177E-34  -1.80670520372210E-25   6.70271414288643E-16   0.00000000000000E+00   0.00000000000000E+00
      0.00000000000000E+00   0.00000000000000E+00  -1.73598678163581E-26  -7.99383649737049E-34  -1.73598686157417E-26
      8.52465781472728E-16  -5.00000000000000E-01  -5.00000000000000E-01   0.00000000000000E+00   0.00000000000000E+00
      0.00000000000000E+00   0.00000000000000E+00   0.00000000000000E+00  -3.69827966232048E-16
      0.00000000000000E+00
      0.00000000000000E+00   0.00000000000000E+00   0.00000000000000E+00   0.00000000000000E+00  -3.91671998529761E-18
     -1.27086791429241E-30  -3.91671998529888E-18   6.70271412174448E-16   0.00000000000000E+00   0.00000000000000E+00
      0.00000000000000E+00   0.00000000000000E+00  -9.75335717910281E-19  -1.27565487430973E-30  -9.75335717911556E-19
      8.52465779065960E-16  -5.00000000000000E-01  -5.00000000000000E-01   0.00000000000000E+00   0.00000000000000E+00
      0.00000000000000E+00   0.00000000000000E+00   0.00000000000000E+00  -3.69827966235908E-16
      1.00000000000000E-03
      0.00000000000000E+00   0.00000000000000E+00   0.00000000000000E+00   0.00000000000000E+00  -1.63570077786940E-18
     -7.41724185840816E-22  -1.63644250205524E-18   6.70050738422618E-16   1.00000000000000E-03   1.00000000000000E-03
      0.00000000000000E+00   0.00000000000000E+00   1.62648306795501E-18   7.16547713821801E-22   1.62719961566883E-18
      8.52845554902646E-16  -5.00000000000000E-01  -5.00000000000000E-01   0.00000000000000E+00   0.00000000000000E+00
      0.00000000000000E+00   0.00000000000000E+00   0.00000000000000E+00  -3.70355140009510E-16
      2.17333333333333E-03
      0.00000000000000E+00   0.00000000000000E+00   0.00000000000000E+00   0.00000000000000E+00  -8.45515054382476E-18
     -1.61931134115372E-21  -8.45676985516591E-18   6.69794906659541E-16   2.17333333333333E-03   2.17333333333333E-03
      0.00000000000000E+00   0.00000000000000E+00   1.13320168680212E-17   1.55047963179953E-21   1.13335673476530E-17
      8.53294437070115E-16  -5.00000000000000E-01  -5.00000000000000E-01   0.00000000000000E+00   0.00000000000000E+00
      0.00000000000000E+00   0.00000000000000E+00   0.00000000000000E+00  -3.70968405097600E-16
      3.56568888888889E-03
      0.00000000000000E+00   0.00000000000000E+00   0.00000000000000E+00   0.00000000000000E+00  -1.22076973559581E-17
     -2.67045958012099E-21  -1.22103678155383E-17   6.69495659681020E-16   3.56568888888889E-03   3.56568888888889E-03
      0.00000000000000E+00   0.00000000000000E+00   1.35894553267495E-17   2.53007831270851E-21   1.35919854050622E-17
      8.53831694599734E-16  -5.00000000000000E-01  -5.00000000000000E-01   0.00000000000000E+00   0.00000000000000E+00
      0.00000000000000E+00   0.00000000000000E+00   0.00000000000000E+00  -3.71688726620165E-16
      5.21795081481481E-03
      0.00000000000000E+00   0.00000000000000E+00   0.00000000000000E+00   0.00000000000000E+00  -2.37410151382495E-17
     -3.93072295162981E-21  -2.37449458612012E-17   6.69146675189214E-16   5.21795081481481E-03   5.21795081481481E-03
      0.00000000000000E+00   0.00000000000000E+00   1.96717587111253E-17   3.67773011066516E-21   1.96754364412360E-17
      8.54475676878599E-16  -5.00000000000000E-01  -5.00000000000000E-01   0.00000000000000E+00   0.00000000000000E+00
      0.00000000000000E+00   0.00000000000000E+00   0.00000000000000E+00  -3.72533040474044E-16
      7.17863496691358E-03
      0.00000000000000E+00   0.00000000000000E+00   0.00000000000000E+00   0.00000000000000E+00  -2.54864349763923E-17
     -5.44298397596340E-21  -2.54918779603683E-17   6.68741177878639E-16   7.17863496691358E-03   7.17863496691358E-03
      0.00000000000000E+00   0.00000000000000E+00   2.86727452264201E-17   5.01760960897979E-21   2.86777628360291E-17
      8.55248894821874E-16  -5.00000000000000E-01  -5.00000000000000E-01   0.00000000000000E+00   0.00000000000000E+00
      0.00000000000000E+00   0.00000000000000E+00   0.00000000000000E+00  -3.73520199176105E-16
      9.50531349407078E-03
      0.00000000000000E+00   0.00000000000000E+00   0.00000000000000E+00   0.00000000000000E+00  -3.95997515864409E-17
     -7.25866642477792E-21  -3.96070102528656E-17   6.68272145289005E-16   9.50531349407078E-03   9.50531349407078E-03
      0.00000000000000E+00   0.00000000000000E+00   3.82367168867386E-17   6.57481274400027E-21   3.82432916994826E-17
      8.56179078293819E-16  -5.00000000000000E-01  -5.00000000000000E-01   0.00000000000000E+00   0.00000000000000E+00
      0.00000000000000E+00   0.00000000000000E+00   0.00000000000000E+00  -3.74670832072612E-16
      1.22663053462973E-02
      0.00000000000000E+00   0.00000000000000E+00   0.00000000000000E+00   0.00000000000000E+00  -4.41065755457324E-17
     -9.43880058045555E-21  -4.41160143463129E-17   6.67732658808166E-16   1.22663053462973E-02   1.22663053462973E-02
      0.00000000000000E+00   0.00000000000000E+00   4.60220637881075E-17   8.37375140743539E-21   4.60304375395150E-17
      8.57300524239026E-16  -5.00000000000000E-01  -5.00000000000000E-01   0.00000000000000E+00   0.00000000000000E+00
      0.00000000000000E+00   0.00000000000000E+00   0.00000000000000E+00  -3.76006996469783E-16
      1.55426823442728E-02
      0.00000000000000E+00   0.00000000000000E+00   0.00000000000000E+00   0.00000000000000E+00  -6.02256347372951E-17
     -1.20545482781457E-20  -6.02376892855732E-17   6.67116457911929E-16   1.55426823442728E-02   1.55426823442728E-02
      0.00000000000000E+00   0.00000000000000E+00   6.13575022936122E-17   1.04354541959325E-20   6.13679377478081E-17
      8.58655808960074E-16  -5.00000000000000E-01  -5.00000000000000E-01   0.00000000000000E+00   0.00000000000000E+00
      0.00000000000000E+00   0.00000000000000E+00   0.00000000000000E+00  -3.77551527564604E-16
      1.94306497152037E-02
      0.00000000000000E+00   0.00000000000000E+00   0.00000000000000E+00   0.00000000000000E+00  -7.58028156450716E-17
     -1.51864622139939E-20  -7.58180021072856E-17   6.66418764802102E-16   1.94306497152037E-02   1.94306497152037E-02
      0.00000000000000E+00   0.00000000000000E+00   7.26733599917533E-17   1.27733419665720E-20   7.26861333337199E-17
      8.60297940810312E-16  -5.00000000000000E-01  -5.00000000000000E-01   0.00000000000000E+00   0.00000000000000E+00
      0.00000000000000E+00   0.00000000000000E+00   0.00000000000000E+00  -3.79326981035747E-16
      2.40443709953751E-02
      0.00000000000000E+00   0.00000000000000E+00   0.00000000000000E+00   0.00000000000000E+00  -9.09474061133886E-17
     -1.89212649015684E-20  -9.09663273782902E-17   6.65637439740433E-16   2.40443709953751E-02   2.40443709953751E-02
      0.00000000000000E+00   0.00000000000000E+00   9.26649847561766E-17   1.53870563001049E-20   9.26803718124767E-17
      8.62293008860370E-16  -5.00000000000000E-01  -5.00000000000000E-01   0.00000000000000E+00   0.00000000000000E+00
      0.00000000000000E+00   0.00000000000000E+00   0.00000000000000E+00  -3.81354075925057E-16
      2.95193202478451E-02
      0.00000000000000E+00   0.00000000000000E+00   0.00000000000000E+00   0.00000000000000E+00  -1.11163573398007E-16
     -2.33442542332019E-20  -1.11186917652240E-16   6.64774499984235E-16   2.95193202478451E-02   2.95193202478451E-02
      0.00000000000000E+00   0.00000000000000E+00   1.16997125367913E-16   1.82542035864311E-20   1.17015379571499E-16
      8.64723329729394E-16  -5.00000000000000E-01  -5.00000000000000E-01   0.00000000000000E+00   0.00000000000000E+00
      0.00000000000000E+00   0.00000000000000E+00   0.00000000000000E+00  -3.83649595233506E-16
      3.60162600274429E-02
      0.00000000000000E+00   0.00000000000000E+00   0.00000000000000E+00   0.00000000000000E+00  -1.38490732756115E-16
     -2.85248999529833E-20  -1.38519257656068E-16   6.63837935428877E-16   3.60162600274429E-02   3.60162600274429E-02
      0.00000000000000E+00   0.00000000000000E+00   1.33569958036074E-16   2.13206497531569E-20   1.33591278685827E-16
      8.67690948519090E-16  -5.00000000000000E-01  -5.00000000000000E-01   0.00000000000000E+00   0.00000000000000E+00
      0.00000000000000E+00   0.00000000000000E+00   0.00000000000000E+00  -3.86223876596075E-16
      4.37259618992322E-02
      0.00000000000000E+00   0.00000000000000E+00   0.00000000000000E+00   0.00000000000000E+00  -1.65980706307954E-16
     -3.44933769835716E-20  -1.66015199684937E-16   6.62843567532965E-16   4.37259618992322E-02   4.37259618992322E-02
      0.00000000000000E+00   0.00000000000000E+00   1.57760720594237E-16   2.44916364113832E-20   1.57785212230649E-16
      8.71321088058795E-16  -5.00000000000000E-01  -5.00000000000000E-01   0.00000000000000E+00   0.00000000000000E+00
      0.00000000000000E+00   0.00000000000000E+00   0.00000000000000E+00  -3.89078350514130E-16
      5.28748081204222E-02
      0.00000000000000E+00   0.00000000000000E+00   0.00000000000000E+00   0.00000000000000E+00  -1.86047868950571E-16
     -4.12084067240434E-20  -1.86089077357295E-16   6.61816349031699E-16   5.28748081204222E-02   5.28748081204222E-02
      0.00000000000000E+00   0.00000000000000E+00   1.88806085706315E-16   2.76284554055199E-20   1.88833714161721E-16
      8.75764677276351E-16  -5.00000000000000E-01  -5.00000000000000E-01   0.00000000000000E+00   0.00000000000000E+00
      0.00000000000000E+00   0.00000000000000E+00   0.00000000000000E+00  -3.92204188214640E-16
      6.37314389695677E-02
      0.00000000000000E+00   0.00000000000000E+00   0.00000000000000E+00   0.00000000000000E+00  -2.21096774379140E-16
     -4.85232734520994E-20  -2.21145297652592E-16   6.60790129432201E-16   6.37314389695677E-02   6.37314389695677E-02
      0.00000000000000E+00   0.00000000000000E+00   2.14298071035538E-16   3.05578580250257E-20   2.14328628893563E-16
      8.81198562270721E-16  -5.00000000000000E-01  -5.00000000000000E-01   0.00000000000000E+00   0.00000000000000E+00
      0.00000000000000E+00   0.00000000000000E+00   0.00000000000000E+00  -3.95583765634904E-16
      7.64698858325651E-02
      0.00000000000000E+00   0.00000000000000E+00   0.00000000000000E+00   0.00000000000000E+00  -2.43831075870627E-16
     -5.60886201726231E-20  -2.43887164490799E-16   6.59814468960419E-16   7.64698858325651E-02   7.64698858325651E-02
      0.00000000000000E+00   0.00000000000000E+00   2.44598911722069E-16   3.30768279418187E-20   2.44631988550011E-16
      8.87746281560833E-16  -5.00000000000000E-01  -5.00000000000000E-01   0.00000000000000E+00   0.00000000000000E+00
      0.00000000000000E+00   0.00000000000000E+00   0.00000000000000E+00  -3.99158640879511E-16
      9.14163301518153E-02
      0.00000000000000E+00   0.00000000000000E+00   0.00000000000000E+00   0.00000000000000E+00  -2.73992045336057E-16
     -6.35560397190788E-20  -2.74055601375776E-16   6.58924000559511E-16   9.14163301518153E-02   9.14163301518153E-02
      0.00000000000000E+00   0.00000000000000E+00   2.74332406698963E-16   3.50666538139359E-20   2.74367473352777E-16
      8.95587552408424E-16  -5.00000000000000E-01  -5.00000000000000E-01   0.00000000000000E+00   0.00000000000000E+00
      0.00000000000000E+00   0.00000000000000E+00   0.00000000000000E+00  -4.02919005790365E-16
      1.08953491486402E-01
      0.00000000000000E+00   0.00000000000000E+00   0.00000000000000E+00   0.00000000000000E+00  -2.98208215380592E-16
     -7.05760444231465E-20  -2.98278791425015E-16   6.58143501243606E-16   1.08953491486402E-01   1.08953491486402E-01
      0.00000000000000E+00   0.00000000000000E+00   3.00629395459520E-16   3.64911212887853E-20   3.00665886580809E-16
      9.04895680262036E-16  -5.00000000000000E-01  -5.00000000000000E-01   0.00000000000000E+00   0.00000000000000E+00
      0.00000000000000E+00   0.00000000000000E+00   0.00000000000000E+00  -4.06880839987334E-16
      1.29530427452318E-01
      0.00000000000000E+00   0.00000000000000E+00   0.00000000000000E+00   0.00000000000000E+00  -3.18145515625169E-16
     -7.68913399253989E-20  -3.18222406965095E-16   6.57482456773763E-16   1.29530427452318E-01   1.29530427452318E-01
      0.00000000000000E+00   0.00000000000000E+00   3.22270696502344E-16   3.74076490075703E-20   3.22308104151352E-16
      9.15824261416104E-16  -5.00000000000000E-01  -5.00000000000000E-01   0.00000000000000E+00   0.00000000000000E+00
      0.00000000000000E+00   0.00000000000000E+00   0.00000000000000E+00  -4.11096790863363E-16
      1.53674032318992E-01
      0.00000000000000E+00   0.00000000000000E+00   0.00000000000000E+00   0.00000000000000E+00  -3.36691465684892E-16
     -8.23842295740758E-20  -3.36773849914467E-16   6.56935793816215E-16   1.53674032318992E-01   1.53674032318992E-01
      0.00000000000000E+00   0.00000000000000E+00   3.38780981120460E-16   3.79408124557349E-20   3.38818921932915E-16
      9.28499640569360E-16  -5.00000000000000E-01  -5.00000000000000E-01   0.00000000000000E+00   0.00000000000000E+00
      0.00000000000000E+00   0.00000000000000E+00   0.00000000000000E+00  -4.15656771441910E-16
      1.82002528695889E-01
      0.00000000000000E+00   0.00000000000000E+00   0.00000000000000E+00   0.00000000000000E+00  -3.53904790063844E-16
     -8.70444838914317E-20  -3.53991834547736E-16   6.56490795852830E-16   1.82002528695889E-01   1.82002528695889E-01
      0.00000000000000E+00   0.00000000000000E+00   3.49924470969680E-16   3.82326738949653E-20   3.49962703643575E-16
      9.43028411111285E-16  -5.00000000000000E-01  -5.00000000000000E-01   0.00000000000000E+00   0.00000000000000E+00
      0.00000000000000E+00   0.00000000000000E+00   0.00000000000000E+00  -4.20678372646489E-16
      2.15241297778115E-01
      0.00000000000000E+00   0.00000000000000E+00   0.00000000000000E+00   0.00000000000000E+00  -3.64950000122984E-16
     -9.09309608496023E-20  -3.65040931083834E-16   6.56131901975733E-16   2.15241297778115E-01   2.15241297778115E-01
      0.00000000000000E+00   0.00000000000000E+00   3.64210334132879E-16   3.83998976711093E-20   3.64248734030550E-16
      9.59533195951869E-16  -5.00000000000000E-01  -5.00000000000000E-01   0.00000000000000E+00   0.00000000000000E+00
      0.00000000000000E+00   0.00000000000000E+00   0.00000000000000E+00  -4.26301312020260E-16
      2.54241453501261E-01
      0.00000000000000E+00   0.00000000000000E+00   0.00000000000000E+00   0.00000000000000E+00  -3.75112706777835E-16
     -9.42360133769910E-20  -3.75206942791212E-16   6.55834901046313E-16   2.54241453501261E-01   2.54241453501261E-01
      0.00000000000000E+00   0.00000000000000E+00   3.76355330154064E-16   3.85168611447260E-20   3.76393847015209E-16
      9.78223234072897E-16  -5.00000000000000E-01  -5.00000000000000E-01   0.00000000000000E+00   0.00000000000000E+00
      0.00000000000000E+00   0.00000000000000E+00   0.00000000000000E+00  -4.32700223412494E-16
      3.00001636216419E-01
      0.00000000000000E+00   0.00000000000000E+00   0.00000000000000E+00   0.00000000000000E+00  -3.84517058777381E-16
     -9.73857748552897E-20  -3.84614444552236E-16   6.55558508254832E-16   3.00001636216419E-01   3.00001636216419E-01
      0.00000000000000E+00   0.00000000000000E+00   3.85636691820772E-16   3.86217593464404E-20   3.85675313580119E-16
      9.99463036268893E-16  -5.00000000000000E-01  -5.00000000000000E-01   0.00000000000000E+00   0.00000000000000E+00
      0.00000000000000E+00   0.00000000000000E+00   0.00000000000000E+00  -4.40102044187721E-16
      3.53083448166001E-01
      0.00000000000000E+00   0.00000000000000E+00   0.00000000000000E+00   0.00000000000000E+00  -4.00391826357608E-16
     -1.00918677142191E-19  -4.00492745034750E-16   6.55255871415960E-16   3.53083448166001E-01   3.53083448166001E-01
      0.00000000000000E+00   0.00000000000000E+00   3.93995832693836E-16   3.87299911177671E-20   3.94034562684954E-16
      1.02350426786502E-15  -5.00000000000000E-01  -5.00000000000000E-01   0.00000000000000E+00   0.00000000000000E+00
      0.00000000000000E+00   0.00000000000000E+00   0.00000000000000E+00  -4.48677388436033E-16
      4.14658350027517E-01
      0.00000000000000E+00   0.00000000000000E+00   0.00000000000000E+00   0.00000000000000E+00  -4.11212651480101E-16
     -1.04794706181105E-19  -4.11317446186282E-16   6.54932362603136E-16   4.14658350027517E-01   4.14658350027517E-01
      0.00000000000000E+00   0.00000000000000E+00   4.14480975408153E-16   3.88482746109689E-20   4.14519823682764E-16
      1.05093762460423E-15  -5.00000000000000E-01  -5.00000000000000E-01   0.00000000000000E+00   0.00000000000000E+00
      0.00000000000000E+00   0.00000000000000E+00   0.00000000000000E+00  -4.58602832534688E-16
      4.86085236186876E-01
      0.00000000000000E+00   0.00000000000000E+00   0.00000000000000E+00   0.00000000000000E+00  -4.18753519169724E-16
     -1.07763678180507E-19  -4.18861282847904E-16   6.54690204348422E-16   4.86085236186876E-01   4.86085236186876E-01
      0.00000000000000E+00   0.00000000000000E+00   4.20771413984085E-16   3.89798439807690E-20   4.20810393828066E-16
      1.08245702574026E-15  -5.00000000000000E-01  -5.00000000000000E-01   0.00000000000000E+00   0.00000000000000E+00
      0.00000000000000E+00   0.00000000000000E+00   0.00000000000000E+00  -4.69925142796679E-16
      5.68940424131732E-01
      0.00000000000000E+00   0.00000000000000E+00   0.00000000000000E+00   0.00000000000000E+00  -4.27464485354657E-16
     -1.09776347852052E-19  -4.27574261702509E-16   6.54528590561678E-16   5.68940424131732E-01   5.68940424131732E-01
      0.00000000000000E+00   0.00000000000000E+00   4.18920933026362E-16   3.91262806995304E-20   4.18960059307061E-16
      1.11873439668853E-15  -5.00000000000000E-01  -5.00000000000000E-01   0.00000000000000E+00   0.00000000000000E+00
      0.00000000000000E+00   0.00000000000000E+00   0.00000000000000E+00  -4.82900840260032E-16
      6.65052442147765E-01
      0.00000000000000E+00   0.00000000000000E+00   0.00000000000000E+00   0.00000000000000E+00  -4.34740865366104E-16
     -1.14076027801549E-19  -4.34854941393905E-16   6.54190748986734E-16   6.65052442147765E-01   6.65052442147765E-01
      0.00000000000000E+00   0.00000000000000E+00   4.41362180075033E-16   3.92873470788924E-20   4.41401467422111E-16
      1.16035550241257E-15  -5.00000000000000E-01  -5.00000000000000E-01   0.00000000000000E+00   0.00000000000000E+00
      0.00000000000000E+00   0.00000000000000E+00   0.00000000000000E+00  -4.98250131323467E-16
      7.76542383046363E-01
      0.00000000000000E+00   0.00000000000000E+00   0.00000000000000E+00   0.00000000000000E+00  -5.00967093372936E-16
     -1.35809591803050E-19  -5.01102902964739E-16   6.52616423273056E-16   7.76542383046363E-01   7.76542383046363E-01
      0.00000000000000E+00   0.00000000000000E+00   5.05655886849903E-16   3.94595126948650E-20   5.05695346362598E-16
      1.20751430758749E-15  -5.00000000000000E-01  -5.00000000000000E-01   0.00000000000000E+00   0.00000000000000E+00
      0.00000000000000E+00   0.00000000000000E+00   0.00000000000000E+00  -5.18033045522886E-16
      9.05870714488737E-01
      0.00000000000000E+00   0.00000000000000E+00   0.00000000000000E+00   0.00000000000000E+00  -6.13346820595409E-16
     -1.78580842545628E-19  -6.13525401437954E-16   6.50014708284610E-16   9.05870714488737E-01   9.05870714488737E-01
      0.00000000000000E+00   0.00000000000000E+00   6.19473616124711E-16   3.96441289891360E-20   6.19513260253700E-16
      1.26128947992691E-15  -5.00000000000000E-01  -5.00000000000000E-01   0.00000000000000E+00   0.00000000000000E+00
      0.00000000000000E+00   0.00000000000000E+00   0.00000000000000E+00  -5.42269025415509E-16
      1.00000000000000E+00
      0.00000000000000E+00   0.00000000000000E+00   0.00000000000000E+00   0.00000000000000E+00  -6.50765566091605E-16
     -1.91980033639870E-19  -6.50957546125245E-16   6.49302400031898E-16   1.00000000000000E+00   1.00000000000000E+00
      0.00000000000000E+00   0.00000000000000E+00   6.51395640862927E-16   3.97742247699604E-20   6.51435415087697E-16
      1.30081181237951E-15  -5.00000000000000E-01  -5.00000000000000E-01   0.00000000000000E+00   0.00000000000000E+00
      0.00000000000000E+00   0.00000000000000E+00   0.00000000000000E+00  -5.58048193486745E-16
      0.00000000000000E+00
      0.00000000000000E+00   0.00000000000000E+00   0.00000000000000E+00   0.00000000000000E+00  -6.48257370301357E-16
     -1.91980034393017E-19  -6.48449350335750E-16   6.49302399993056E-16   1.00000000000000E+00   1.00000000000000E+00
      0.00000000000000E+00   0.00000000000000E+00   6.56311190645136E-16   3.97742247698443E-20   6.56350964869906E-16
      1.30081181235679E-15  -5.00000000000000E-01  -5.00000000000000E-01   0.00000000000000E+00   0.00000000000000E+00
      0.00000000000000E+00   0.00000000000000E+00   0.00000000000000E+00  -5.58048193548432E-16
      1.00000000000000E-03
      0.00000000000000E+00   0.00000000000000E+00   0.00000000000000E+00   0.00000000000000E+00  -6.52224499518429E-16
     -1.91940843682067E-19  -6.52416440362111E-16   6.49227580237402E-16   1.00000000000000E+00   1.00000000000000E+00
      0.00000000000000E+00   0.00000000000000E+00   6.55932367324112E-16   3.97742198281522E-20   6.55972141543940E-16
      1.30050132225463E-15  -4.98000000000000E-01  -4.98000000000000E-01   0.00000000000000E+00   0.00000000000000E+00
      0.00000000000000E+00   0.00000000000000E+00   0.00000000000000E+00  -5.56209711931391E-16
      2.17333333333333E-03
      0.00000000000000E+00   0.00000000000000E+00   0.00000000000000E+00   0.00000000000000E+00  -6.51668437538168E-16
     -1.91894458054651E-19  -6.51860331996223E-16   6.49139606274408E-16   1.00000000000000E+00   1.00000000000000E+00
      0.00000000000000E+00   0.00000000000000E+00   6.55553409527116E-16   3.97742140518083E-20   6.55593183741168E-16
      1.30013664993075E-15  -4.95653333333333E-01  -4.95653333333333E-01   0.00000000000000E+00   0.00000000000000E+00
      0.00000000000000E+00   0.00000000000000E+00   0.00000000000000E+00  -5.54056684010381E-16
      3.56568888888889E-03
      0.00000000000000E+00   0.00000000000000E+00   0.00000000000000E+00   0.00000000000000E+00  -6.48091759463981E-16
     -1.91838858303228E-19  -6.48283598322284E-16   6.49034949869963E-16   1.00000000000000E+00   1.00000000000000E+00
      0.00000000000000E+00   0.00000000000000E+00   6.49124278982314E-16   3.97742072261709E-20   6.49164053189540E-16
      1.29970339082547E-15  -4.92868622222222E-01  -4.92868622222222E-01   0.00000000000000E+00   0.00000000000000E+00
      0.00000000000000E+00   0.00000000000000E+00   0.00000000000000E+00  -5.51507604509955E-16
      5.21795081481481E-03
      0.00000000000000E+00   0.00000000000000E+00   0.00000000000000E+00   0.00000000000000E+00  -6.53029800329137E-16
     -1.91772094765739E-19  -6.53221572423903E-16   6.48910389744559E-16   1.00000000000000E+00   1.00000000000000E+00
      0.00000000000000E+00   0.00000000000000E+00   6.45719882419237E-16   3.97741991667114E-20   6.45759656618403E-16
      1.29918852484038E-15  -4.89564098370370E-01  -4.89564098370370E-01   0.00000000000000E+00   0.00000000000000E+00
      0.00000000000000E+00   0.00000000000000E+00   0.00000000000000E+00  -5.48491045552364E-16
      7.17863496691358E-03
      0.00000000000000E+00   0.00000000000000E+00   0.00000000000000E+00   0.00000000000000E+00  -6.55443756037409E-16
     -1.91691759741499E-19  -6.55635447797151E-16   6.48762058427693E-16   1.00000000000000E+00   1.00000000000000E+00
      0.00000000000000E+00   0.00000000000000E+00   6.52146598964447E-16   3.97741896585679E-20   6.52186373154106E-16
      1.29857650858601E-15  -4.85642730066173E-01  -4.85642730066173E-01   0.00000000000000E+00   0.00000000000000E+00
      0.00000000000000E+00   0.00000000000000E+00   0.00000000000000E+00  -5.44923344405637E-16
      9.50531349407078E-03
      0.00000000000000E+00   0.00000000000000E+00   0.00000000000000E+00   0.00000000000000E+00  -6.47304052971938E-16
     -1.91594864507333E-19  -6.47495647836445E-16   6.48585302032848E-16   1.00000000000000E+00   1.00000000000000E+00
      0.00000000000000E+00   0.00000000000000E+00   6.50254162666897E-16   3.97741784521059E-20   6.50293936845349E-16
      1.29784876436632E-15  -4.80989373011858E-01  -4.80989373011858E-01   0.00000000000000E+00   0.00000000000000E+00
      0.00000000000000E+00   0.00000000000000E+00   0.00000000000000E+00  -5.40706819163071E-16
      1.22663053462973E-02
      0.00000000000000E+00   0.00000000000000E+00   0.00000000000000E+00   0.00000000000000E+00  -6.47668319267089E-16
     -1.91477676458963E-19  -6.47859796943548E-16   6.48374504640551E-16   1.00000000000000E+00   1.00000000000000E+00
      0.00000000000000E+00   0.00000000000000E+00   6.52520878177313E-16   3.97741652582728E-20   6.52560652342572E-16
      1.29698305699703E-15  -4.75467389307405E-01  -4.75467389307405E-01   0.00000000000000E+00   0.00000000000000E+00
      0.00000000000000E+00   0.00000000000000E+00   0.00000000000000E+00  -5.35727888179048E-16
      1.55426823442728E-02
      0.00000000000000E+00   0.00000000000000E+00   0.00000000000000E+00   0.00000000000000E+00  -6.47501742070565E-16
     -1.91335505319217E-19  -6.47693077575884E-16   6.48122865408560E-16   1.00000000000000E+00   1.00000000000000E+00
      0.00000000000000E+00   0.00000000000000E+00   6.50249454912301E-16   3.97741497434694E-20   6.50289229062044E-16
      1.29595273126447E-15  -4.68914635311454E-01  -4.68914635311454E-01   0.00000000000000E+00   0.00000000000000E+00
      0.00000000000000E+00   0.00000000000000E+00   0.00000000000000E+00  -5.29855192726528E-16
      1.94306497152037E-02
      0.00000000000000E+00   0.00000000000000E+00   0.00000000000000E+00   0.00000000000000E+00  -6.48804051293919E-16
     -1.91162419155401E-19  -6.48995213713075E-16   6.47822111025544E-16   1.00000000000000E+00   1.00000000000000E+00
      0.00000000000000E+00   0.00000000000000E+00   6.57809412681236E-16   3.97741315243548E-20   6.57849186812760E-16
      1.29472577691687E-15  -4.61138700569592E-01  -4.61138700569592E-01   0.00000000000000E+00   0.00000000000000E+00
      0.00000000000000E+00   0.00000000000000E+00   0.00000000000000E+00  -5.22937900608843E-16
      2.40443709953751E-02
      0.00000000000000E+00   0.00000000000000E+00   0.00000000000000E+00   0.00000000000000E+00  -6.50562688198883E-16
     -1.90950882940411E-19  -6.50753639081823E-16   6.47462115622111E-16   1.00000000000000E+00   1.00000000000000E+00
      0.00000000000000E+00   0.00000000000000E+00   6.55158677552070E-16   3.97741101605683E-20   6.55198451662231E-16
      1.29326368204690E-15  -4.51911258009250E-01  -4.51911258009250E-01   0.00000000000000E+00   0.00000000000000E+00
      0.00000000000000E+00   0.00000000000000E+00   0.00000000000000E+00  -5.14804495972528E-16
      2.95193202478451E-02
      0.00000000000000E+00   0.00000000000000E+00   0.00000000000000E+00   0.00000000000000E+00  -6.54272120341710E-16
     -1.90691274505701E-19  -6.54462811616215E-16   6.47030385100351E-16   1.00000000000000E+00   1.00000000000000E+00
      0.00000000000000E+00   0.00000000000000E+00   6.45699859386897E-16   3.97740851488334E-20   6.45739633472046E-16
      1.29152003407701E-15  -4.40961359504310E-01  -4.40961359504310E-01   0.00000000000000E+00   0.00000000000000E+00
      0.00000000000000E+00   0.00000000000000E+00   0.00000000000000E+00  -5.05262566193851E-16
      3.60162600274429E-02
      0.00000000000000E+00   0.00000000000000E+00   0.00000000000000E+00   0.00000000000000E+00  -6.49385011369602E-16
     -1.90371302822394E-19  -6.49575382672424E-16   6.46511328817809E-16   1.00000000000000E+00   1.00000000000000E+00
      0.00000000000000E+00   0.00000000000000E+00   6.56661435600584E-16   3.97740559111484E-20   6.56701209656495E-16
      1.28943882882826E-15  -4.27967479945114E-01  -4.27967479945114E-01   0.00000000000000E+00   0.00000000000000E+00
      0.00000000000000E+00   0.00000000000000E+00   0.00000000000000E+00  -4.94100472984478E-16
      4.37259618992322E-02
      0.00000000000000E+00   0.00000000000000E+00   0.00000000000000E+00   0.00000000000000E+00  -6.48423542669781E-16
     -1.89975333351398E-19  -6.48613518003132E-16   6.45885187918515E-16   1.00000000000000E+00   1.00000000000000E+00
      0.00000000000000E+00   0.00000000000000E+00   6.49847133000892E-16   3.97740217731881E-20   6.49886907022665E-16
      1.28695245732768E-15  -4.12548076201536E-01  -4.12548076201536E-01   0.00000000000000E+00   0.00000000000000E+00
      0.00000000000000E+00   0.00000000000000E+00   0.00000000000000E+00  -4.81092539237213E-16
      5.28748081204222E-02
      0.00000000000000E+00   0.00000000000000E+00   0.00000000000000E+00   0.00000000000000E+00  -6.54375970163360E-16
     -1.89483841194376E-19  -6.54565454004554E-16   6.45126382262995E-16   1.00000000000000E+00   1.00000000000000E+00