DF-ISE text

Info {
  version   = 1.0
  type      = xyplot
  datasets  = [
    "time"
    "D OuterVoltage" "D InnerVoltage" "D QuasiFermiPotential" "D DisplacementCurrent" "D eCurrent"
    "D hCurrent" "D TotalCurrent" "D Charge" "G OuterVoltage" "G InnerVoltage"
    "G QuasiFermiPotential" "G DisplacementCurrent" "G eCurrent" "G hCurrent" "G TotalCurrent"
    "G Charge" "S OuterVoltage" "S InnerVoltage" "S QuasiFermiPotential" "S DisplacementCurrent"
    "S eCurrent" "S hCurrent" "S TotalCurrent" "S Charge" "B OuterVoltage"
    "B InnerVoltage" "B QuasiFermiPotential" "B DisplacementCurrent" "B eCurrent" "B hCurrent"
    "B TotalCurrent" "B Charge" ]
  functions = [
    Time
    OuterVoltage InnerVoltage QuasiFermiPotential DisplacementCurrent eCurrent
    hCurrent TotalCurrent Charge OuterVoltage InnerVoltage
    QuasiFermiPotential DisplacementCurrent eCurrent hCurrent TotalCurrent
    Charge OuterVoltage InnerVoltage QuasiFermiPotential DisplacementCurrent
    eCurrent hCurrent TotalCurrent Charge OuterVoltage
    InnerVoltage QuasiFermiPotential DisplacementCurrent eCurrent hCurrent
    TotalCurrent Charge ]
}

Data {
      0.00000000000000E+00
      0.00000000000000E+00   0.00000000000000E+00   0.00000000000000E+00   0.00000000000000E+00  -2.04050493489957E-21
     -6.18167073657796E-39  -2.04050493489957E-21   3.93170401367996E-18  -5.00000000000000E-01  -5.00000000000000E-01
      0.00000000000000E+00   0.00000000000000E+00   0.00000000000000E+00   0.00000000000000E+00   0.00000000000000E+00
     -2.88638762869256E-18   0.00000000000000E+00   0.00000000000000E+00   0.00000000000000E+00   0.00000000000000E+00
     -2.04266113687849E-21  -2.47522955743188E-38  -2.04266113687849E-21   3.92877186904991E-18   0.00000000000000E+00
      0.00000000000000E+00   0.00000000000000E+00   0.00000000000000E+00  -7.14582202224828E-37  -2.69228566308655E-22
     -2.69228566308655E-22  -4.97408825403731E-18
      0.00000000000000E+00
      0.00000000000000E+00   0.00000000000000E+00   0.00000000000000E+00   0.00000000000000E+00   8.68034234457396E-21
      1.22056494224496E-36   8.68034234457396E-21   3.93029779569320E-18  -5.00000000000000E-01  -5.00000000000000E-01
      0.00000000000000E+00   0.00000000000000E+00   0.00000000000000E+00   0.00000000000000E+00   0.00000000000000E+00
     -2.88624917254589E-18   0.00000000000000E+00   0.00000000000000E+00   0.00000000000000E+00   0.00000000000000E+00
      1.82608106466108E-20   1.29360508533712E-36   1.82608106466108E-20   3.92734426755409E-18   0.00000000000000E+00
      0.00000000000000E+00   0.00000000000000E+00   0.00000000000000E+00   1.05014606337869E-36   5.28774496380401E-22
      5.28774496380402E-22  -4.97139289070139E-18
      0.00000000000000E+00
      0.00000000000000E+00   0.00000000000000E+00   0.00000000000000E+00   0.00000000000000E+00  -6.23533632862480E-22
      1.15705579523068E-36  -6.23533632862479E-22   3.93029779569320E-18  -5.00000000000000E-01  -5.00000000000000E-01
      0.00000000000000E+00   0.00000000000000E+00   0.00000000000000E+00   0.00000000000000E+00   0.00000000000000E+00
     -2.88624917254589E-18   0.00000000000000E+00   0.00000000000000E+00   0.00000000000000E+00   0.00000000000000E+00
      1.79414910575642E-20   1.29593258502630E-36   1.79414910575642E-20   3.92734426755409E-18   0.00000000000000E+00
      0.00000000000000E+00   0.00000000000000E+00   0.00000000000000E+00   1.26262633196475E-37  -1.63041461771139E-22
     -1.63041461771139E-22  -4.97139289070139E-18
      1.00000000000000E-02
      1.00000000000000E-02   1.00000000000000E-02   0.00000000000000E+00   0.00000000000000E+00   2.91422522037799E-19
      3.58442015088505E-23   2.91458366239308E-19   3.95873925083557E-18  -5.00000000000000E-01  -5.00000000000000E-01
      0.00000000000000E+00   0.00000000000000E+00   0.00000000000000E+00   0.00000000000000E+00   0.00000000000000E+00
     -2.89934845660862E-18   0.00000000000000E+00   0.00000000000000E+00   0.00000000000000E+00   0.00000000000000E+00
     -1.32769670699641E-19  -3.07347547658687E-35  -1.32769670699641E-19   3.92703716516239E-18   0.00000000000000E+00
      0.00000000000000E+00   0.00000000000000E+00   0.00000000000000E+00  -4.52016188809429E-22  -4.82239189979556E-20
     -4.86759351867650E-20  -4.98642795938935E-18
      2.28000000000000E-02
      2.28000000000000E-02   2.28000000000000E-02   0.00000000000000E+00   0.00000000000000E+00   2.64506484348584E-19
      6.52728813330992E-23   2.64571757229917E-19   3.99498486409404E-18  -5.00000000000000E-01  -5.00000000000000E-01
      0.00000000000000E+00   0.00000000000000E+00   0.00000000000000E+00   0.00000000000000E+00   0.00000000000000E+00
     -2.91604211164802E-18   0.00000000000000E+00   0.00000000000000E+00   0.00000000000000E+00   0.00000000000000E+00
     -1.49838907099662E-19  -7.70888296981722E-35  -1.49838907099662E-19   3.92664239625279E-18   0.00000000000000E+00
      0.00000000000000E+00   0.00000000000000E+00   0.00000000000000E+00  -8.26033046978570E-22  -1.02150432298531E-19
     -1.02976465345510E-19  -5.00558514869882E-18
      3.97813333333333E-02
      3.97813333333333E-02   3.97813333333333E-02   0.00000000000000E+00   0.00000000000000E+00   3.29888923986807E-19
      8.70672231879920E-23   3.29975991209995E-19   4.04278992163986E-18  -5.00000000000000E-01  -5.00000000000000E-01
      0.00000000000000E+00   0.00000000000000E+00   0.00000000000000E+00   0.00000000000000E+00   0.00000000000000E+00
     -2.93805415110895E-18   0.00000000000000E+00   0.00000000000000E+00   0.00000000000000E+00   0.00000000000000E+00
     -1.60285412592733E-19  -1.48330697169508E-34  -1.60285412592733E-19   3.92611588688602E-18   0.00000000000000E+00
      0.00000000000000E+00   0.00000000000000E+00   0.00000000000000E+00  -1.10557767147289E-21  -1.68302228954154E-19
     -1.69407806625627E-19  -5.03085165741692E-18
      6.23099022222222E-02
      6.23099022222222E-02   6.23099022222222E-02   0.00000000000000E+00   0.00000000000000E+00   4.01890774665217E-19
      1.00310846389263E-22   4.01991085511606E-19   4.10570531094162E-18  -5.00000000000000E-01  -5.00000000000000E-01
      0.00000000000000E+00   0.00000000000000E+00   0.00000000000000E+00   0.00000000000000E+00   0.00000000000000E+00
     -2.96700005601816E-18   0.00000000000000E+00   0.00000000000000E+00   0.00000000000000E+00   0.00000000000000E+00
     -1.48267941222453E-19  -2.57390394564198E-34  -1.48267941222453E-19   3.92541280239689E-18   0.00000000000000E+00
      0.00000000000000E+00   0.00000000000000E+00   0.00000000000000E+00  -1.28002605629989E-21  -3.03994960480344E-19
     -3.05274986536644E-19  -5.06411805732034E-18
      9.21978036148148E-02
      9.21978036148148E-02   9.21978036148148E-02   0.00000000000000E+00   0.00000000000000E+00   4.98752161842365E-19
      1.06216569952621E-22   4.98858378412318E-19   4.18825121758916E-18  -5.00000000000000E-01  -5.00000000000000E-01
      0.00000000000000E+00   0.00000000000000E+00   0.00000000000000E+00   0.00000000000000E+00   0.00000000000000E+00
     -3.00490027027417E-18   0.00000000000000E+00   0.00000000000000E+00   0.00000000000000E+00   0.00000000000000E+00
     -1.66620712359271E-19  -4.11001883864375E-34  -1.66620712359271E-19   3.92447278589367E-18   0.00000000000000E+00
      0.00000000000000E+00   0.00000000000000E+00   0.00000000000000E+00  -1.36908530279399E-21  -9.47392513500342E-19
     -9.48761598803136E-19  -5.10782373320866E-18
      1.31849086128988E-01
      1.31849086128988E-01   1.31849086128988E-01   0.00000000000000E+00   0.00000000000000E+00   6.12044951364163E-19
      1.07125085123259E-22   6.12152076449287E-19   4.29605894082613E-18  -5.00000000000000E-01  -5.00000000000000E-01
      0.00000000000000E+00   0.00000000000000E+00   0.00000000000000E+00   0.00000000000000E+00   0.00000000000000E+00
     -3.05417487460191E-18   0.00000000000000E+00   0.00000000000000E+00   0.00000000000000E+00   0.00000000000000E+00
     -1.62408829776128E-19  -6.24962119777845E-34  -1.62408829776128E-19   3.92321495430292E-18   0.00000000000000E+00
      0.00000000000000E+00   0.00000000000000E+00   0.00000000000000E+00  -1.41306490184544E-21  -4.27738822692474E-19
     -4.29151887594320E-19  -5.16509902052714E-18
      1.83527924339126E-01
      1.83527924339126E-01   1.83527924339126E-01   0.00000000000000E+00   0.00000000000000E+00   7.34227676554765E-19
      1.05721536800809E-22   7.34333398091566E-19   4.43347715057923E-18  -5.00000000000000E-01  -5.00000000000000E-01
      0.00000000000000E+00   0.00000000000000E+00   0.00000000000000E+00   0.00000000000000E+00   0.00000000000000E+00
     -3.11639954750693E-18   0.00000000000000E+00   0.00000000000000E+00   0.00000000000000E+00   0.00000000000000E+00
     -1.91442069476217E-19  -9.26104929385713E-34  -1.91442069476218E-19   3.92156176655856E-18   0.00000000000000E+00
      0.00000000000000E+00   0.00000000000000E+00   0.00000000000000E+00  -1.44946100872307E-21  -5.23589598758893E-19
     -5.25039059767616E-19  -5.23863936963085E-18
      2.50882676806340E-01
      2.50882676806340E-01   2.50882676806340E-01   0.00000000000000E+00   0.00000000000000E+00   8.85696463911655E-19
      1.03689577831230E-22   8.85800153489486E-19   4.60712912609512E-18  -5.00000000000000E-01  -5.00000000000000E-01
      0.00000000000000E+00   0.00000000000000E+00   0.00000000000000E+00   0.00000000000000E+00   0.00000000000000E+00
     -3.19368056602385E-18   0.00000000000000E+00   0.00000000000000E+00   0.00000000000000E+00   0.00000000000000E+00
     -2.21086702578029E-19  -1.56898179616970E-33  -2.21086702578031E-19   3.91939152018486E-18   0.00000000000000E+00
      0.00000000000000E+00   0.00000000000000E+00   0.00000000000000E+00  -1.49606409127544E-21  -6.54082007037821E-19
     -6.55578071129097E-19  -5.33284008025613E-18
      3.38668370855276E-01
      3.38668370855276E-01   3.38668370855276E-01   0.00000000000000E+00   0.00000000000000E+00   1.16649273975290E-18
      1.01482931033875E-22   1.16659422268393E-18   4.82488586393339E-18  -5.00000000000000E-01  -5.00000000000000E-01
      0.00000000000000E+00   0.00000000000000E+00   0.00000000000000E+00   0.00000000000000E+00   0.00000000000000E+00
     -3.28804513696493E-18   0.00000000000000E+00   0.00000000000000E+00   0.00000000000000E+00   0.00000000000000E+00
     -2.43310378680327E-19  -2.67374286059636E-33  -2.43310378680330E-19   3.91654109378867E-18   0.00000000000000E+00
      0.00000000000000E+00   0.00000000000000E+00   0.00000000000000E+00  -1.55618258153927E-21  -9.18064407904368E-19
     -9.19620590485907E-19  -5.45338182075712E-18
      4.53082392099055E-01
      4.53082392099055E-01   4.53082392099055E-01   0.00000000000000E+00   0.00000000000000E+00   1.53561163351254E-18
      9.94070014550187E-23   1.53571104051399E-18   5.09834151893660E-18  -5.00000000000000E-01  -5.00000000000000E-01
      0.00000000000000E+00   0.00000000000000E+00   0.00000000000000E+00   0.00000000000000E+00   0.00000000000000E+00
     -3.40328437102789E-18   0.00000000000000E+00   0.00000000000000E+00   0.00000000000000E+00   0.00000000000000E+00
     -2.88845864092874E-19  -4.09612363647854E-33  -2.88845864092878E-19   3.91277583586657E-18   0.00000000000000E+00
      0.00000000000000E+00   0.00000000000000E+00   0.00000000000000E+00  -1.62664752146424E-21  -1.25760742498575E-18
     -1.25923407250722E-18  -5.60783298377528E-18
      6.02201999786781E-01
      6.02201999786781E-01   6.02201999786781E-01   0.00000000000000E+00   0.00000000000000E+00   1.78028205415790E-18
      9.92995841860555E-23   1.78038135374208E-18   5.44517208723568E-18  -5.00000000000000E-01  -5.00000000000000E-01
      0.00000000000000E+00   0.00000000000000E+00   0.00000000000000E+00   0.00000000000000E+00   0.00000000000000E+00
     -3.54691571144657E-18   0.00000000000000E+00   0.00000000000000E+00   0.00000000000000E+00   0.00000000000000E+00
     -3.09534819098081E-19  -5.40330088822329E-33  -3.09534819098086E-19   3.90777536174885E-18   0.00000000000000E+00
      0.00000000000000E+00   0.00000000000000E+00   0.00000000000000E+00  -1.69834246601141E-21  -1.44280041075419E-18
     -1.44449875322020E-18  -5.80603173753796E-18
      7.93075097627070E-01
      7.93075097627070E-01   7.93075097627070E-01   0.00000000000000E+00   0.00000000000000E+00   1.99080651805621E-18
      1.00419455818359E-22   1.99090693751203E-18   5.87631126497645E-18  -5.00000000000000E-01  -5.00000000000000E-01
      0.00000000000000E+00   0.00000000000000E+00   0.00000000000000E+00   0.00000000000000E+00   0.00000000000000E+00
     -3.72236746551008E-18   0.00000000000000E+00   0.00000000000000E+00   0.00000000000000E+00   0.00000000000000E+00
     -4.03490886424998E-19  -7.32973298962818E-33  -4.03490886425005E-19   3.90130378397178E-18   0.00000000000000E+00
      0.00000000000000E+00   0.00000000000000E+00   0.00000000000000E+00  -1.77269796355111E-21  -1.56765087291055E-18
     -1.56942357087410E-18  -6.05524758343816E-18
      9.93075097627070E-01
      9.93075097627070E-01   9.93075097627070E-01   0.00000000000000E+00   0.00000000000000E+00   2.37618638219096E-18
      1.01464054855070E-22   2.37628784624581E-18   6.31090599055488E-18  -5.00000000000000E-01  -5.00000000000000E-01
      0.00000000000000E+00   0.00000000000000E+00   0.00000000000000E+00   0.00000000000000E+00   0.00000000000000E+00
     -3.89430467075647E-18   0.00000000000000E+00   0.00000000000000E+00   0.00000000000000E+00   0.00000000000000E+00
     -5.40434459278520E-19  -1.11602920681611E-32  -5.40434459278532E-19   3.89455208145442E-18   0.00000000000000E+00
      0.00000000000000E+00   0.00000000000000E+00   0.00000000000000E+00  -1.83536388031195E-21  -1.84799859644618E-18
     -1.84983396032649E-18  -6.31115340125284E-18
      1.00000000000000E+00
      1.00000000000000E+00   1.00000000000000E+00   0.00000000000000E+00   0.00000000000000E+00   2.37030107647702E-18
      1.01500246959854E-22   2.37040257672398E-18   6.32570035099782E-18  -5.00000000000000E-01  -5.00000000000000E-01
      0.00000000000000E+00   0.00000000000000E+00   0.00000000000000E+00   0.00000000000000E+00   0.00000000000000E+00
     -3.90008140064981E-18   0.00000000000000E+00   0.00000000000000E+00   0.00000000000000E+00   0.00000000000000E+00
     -5.46835844020483E-19  -1.13582522939736E-32  -5.46835844020495E-19   3.89431858197342E-18   0.00000000000000E+00
      0.00000000000000E+00   0.00000000000000E+00   0.00000000000000E+00  -1.83732696219327E-21  -1.86138784645266E-18
     -1.86322517341486E-18  -6.31993753232142E-18
      1.00000000000000E-03
      1.00000000000000E+00   1.00000000000000E+00   0.00000000000000E+00   0.00000000000000E+00   2.42854642459596E-18
      1.01499593823949E-22   2.42864792418978E-18   6.32403294857964E-18  -4.98000000000000E-01  -4.98000000000000E-01
      0.00000000000000E+00   0.00000000000000E+00   0.00000000000000E+00   0.00000000000000E+00   0.00000000000000E+00
     -3.89394981034877E-18   0.00000000000000E+00   0.00000000000000E+00   0.00000000000000E+00   0.00000000000000E+00
     -5.54696138039385E-19  -1.19868544546370E-32  -5.54696138039397E-19   3.89163448433831E-18   0.00000000000000E+00
      0.00000000000000E+00   0.00000000000000E+00   0.00000000000000E+00  -1.83780264797248E-21  -1.86031722502374E-18
     -1.86215502767171E-18  -6.32171762256917E-18
      2.30333333333333E-03
      1.00000000000000E+00   1.00000000000000E+00   0.00000000000000E+00   0.00000000000000E+00   2.47824076251640E-18
      1.01498742825414E-22   2.47834226125922E-18   6.32185858125261E-18  -4.95393333333333E-01  -4.95393333333333E-01
      0.00000000000000E+00   0.00000000000000E+00   0.00000000000000E+00   0.00000000000000E+00   0.00000000000000E+00
     -3.88595582265376E-18   0.00000000000000E+00   0.00000000000000E+00   0.00000000000000E+00   0.00000000000000E+00
     -6.25382245315771E-19  -1.28619910006037E-32  -6.25382245315783E-19   3.88813288246699E-18   0.00000000000000E+00
      0.00000000000000E+00   0.00000000000000E+00   0.00000000000000E+00  -1.83842049863715E-21   1.99079321937753E-16
      1.99077483517254E-16  -6.32403564106584E-18
      4.06283333333333E-03
      1.00000000000000E+00   1.00000000000000E+00   0.00000000000000E+00   0.00000000000000E+00   2.54964168773115E-18
      1.01497594441209E-22   2.54974318532559E-18   6.31892105374283E-18  -4.91874333333333E-01  -4.91874333333333E-01
      0.00000000000000E+00   0.00000000000000E+00   0.00000000000000E+00   0.00000000000000E+00   0.00000000000000E+00
     -3.87515947195755E-18   0.00000000000000E+00   0.00000000000000E+00   0.00000000000000E+00   0.00000000000000E+00
     -6.72428598552539E-19  -1.41523257666840E-32  -6.72428598552553E-19   3.88339979021727E-18   0.00000000000000E+00
      0.00000000000000E+00   0.00000000000000E+00   0.00000000000000E+00  -1.83925077278513E-21  -1.84959386021241E-18
     -1.85143311098520E-18  -6.32716137200254E-18
      6.39710333333333E-03
      1.00000000000000E+00   1.00000000000000E+00   0.00000000000000E+00   0.00000000000000E+00   2.65772948406069E-18
      1.01496071754148E-22   2.65783098013244E-18   6.31502014778353E-18  -4.87205793333333E-01  -4.87205793333333E-01
      0.00000000000000E+00   0.00000000000000E+00   0.00000000000000E+00   0.00000000000000E+00   0.00000000000000E+00
     -3.86082836754521E-18   0.00000000000000E+00   0.00000000000000E+00   0.00000000000000E+00   0.00000000000000E+00
     -7.60604601499666E-19  -1.60793948425639E-32  -7.60604601499682E-19   3.87711014229670E-18   0.00000000000000E+00
      0.00000000000000E+00   0.00000000000000E+00   0.00000000000000E+00  -1.84034547927879E-21  -1.84167271509502E-18
     -1.84351306057430E-18  -6.33130192253501E-18
      9.49390153333333E-03
      1.00000000000000E+00   1.00000000000000E+00   0.00000000000000E+00   0.00000000000000E+00   2.78516079523837E-18
      1.01494053160478E-22   2.78526228929153E-18   6.30983826381811E-18  -4.81012196933333E-01  -4.81012196933333E-01
      0.00000000000000E+00   0.00000000000000E+00   0.00000000000000E+00   0.00000000000000E+00   0.00000000000000E+00
     -3.84180173525636E-18   0.00000000000000E+00   0.00000000000000E+00   0.00000000000000E+00   0.00000000000000E+00
     -9.23915580089651E-19  -1.90738823709891E-32  -9.23915580089670E-19   3.86874777923746E-18   0.00000000000000E+00
      0.00000000000000E+00   0.00000000000000E+00   0.00000000000000E+00  -1.84178583170528E-21  -1.83156149247254E-18
     -1.83340327830424E-18  -6.33678430779921E-18
      1.36023204786667E-02
      1.00000000000000E+00   1.00000000000000E+00   0.00000000000000E+00   0.00000000000000E+00   3.00744587903647E-18
      1.01491377889629E-22   3.00754737041436E-18   6.30295181736152E-18  -4.72795359042667E-01  -4.72795359042667E-01
      0.00000000000000E+00   0.00000000000000E+00   0.00000000000000E+00   0.00000000000000E+00   0.00000000000000E+00
     -3.81653494189018E-18   0.00000000000000E+00   0.00000000000000E+00   0.00000000000000E+00   0.00000000000000E+00
     -1.17413896333193E-18  -2.39812479493003E-32  -1.17413896333196E-18   3.85762236279059E-18   0.00000000000000E+00
      0.00000000000000E+00   0.00000000000000E+00   0.00000000000000E+00  -1.84367568915570E-21  -1.81887020392495E-18
     -1.82071387961411E-18  -6.34403923826192E-18
      1.90528229461422E-02
      1.00000000000000E+00   1.00000000000000E+00   0.00000000000000E+00   0.00000000000000E+00   3.45227003230426E-18
      1.01487833709929E-22   3.45237152013797E-18   6.29379485096599E-18  -4.61894354107716E-01  -4.61894354107716E-01
      0.00000000000000E+00   0.00000000000000E+00   0.00000000000000E+00   0.00000000000000E+00   0.00000000000000E+00
     -3.78297049550560E-18   0.00000000000000E+00   0.00000000000000E+00   0.00000000000000E+00   0.00000000000000E+00
     -1.63254785207699E-18  -3.26215214613897E-32  -1.63254785207703E-18   3.84280854105233E-18   0.00000000000000E+00
      0.00000000000000E+00   0.00000000000000E+00   0.00000000000000E+00  -1.84614616313758E-21  -1.80411258149063E-18
     -1.80595872765377E-18  -6.35363289651272E-18
      2.62838228863265E-02
      1.00000000000000E+00   1.00000000000000E+00   0.00000000000000E+00   0.00000000000000E+00   4.34767162636497E-18
      1.01483141120179E-22   4.34777310950609E-18   6.28160928747873E-18  -4.47432354227347E-01  -4.47432354227347E-01
      0.00000000000000E+00   0.00000000000000E+00   0.00000000000000E+00   0.00000000000000E+00   0.00000000000000E+00
     -3.73836403232457E-18   0.00000000000000E+00   0.00000000000000E+00   0.00000000000000E+00   0.00000000000000E+00
     -2.54683728839363E-18  -4.93800469666742E-32  -2.54683728839368E-18   3.82306248046145E-18   0.00000000000000E+00
      0.00000000000000E+00   0.00000000000000E+00   0.00000000000000E+00  -1.84936002678098E-21  -1.78586841178411E-18
     -1.78771777181089E-18  -6.36630773561561E-18
      3.58769494736376E-02
      1.00000000000000E+00   1.00000000000000E+00   0.00000000000000E+00   0.00000000000000E+00   6.42893274130336E-18
      1.01476933391276E-22   6.42903421823675E-18   6.26537609708219E-18  -4.28246101052725E-01  -4.28246101052725E-01
      0.00000000000000E+00   0.00000000000000E+00   0.00000000000000E+00   0.00000000000000E+00   0.00000000000000E+00
     -3.67904792991589E-18   0.00000000000000E+00   0.00000000000000E+00   0.00000000000000E+00   0.00000000000000E+00
     -4.63079730056215E-18  -8.64355910278241E-32  -4.63079730056224E-18   3.79670618382651E-18   0.00000000000000E+00
      0.00000000000000E+00   0.00000000000000E+00   0.00000000000000E+00  -1.85351547392795E-21  -1.76954589246255E-18
     -1.77139940793648E-18  -6.38303435099282E-18
      4.86038307461369E-02
      1.00000000000000E+00   1.00000000000000E+00   0.00000000000000E+00   0.00000000000000E+00   1.22946198207195E-17
      1.01468731943308E-22   1.22947212894515E-17   6.24371831374887E-18  -4.02792338507726E-01  -4.02792338507726E-01
      0.00000000000000E+00   0.00000000000000E+00   0.00000000000000E+00   0.00000000000000E+00   0.00000000000000E+00
     -3.60010585635486E-18   0.00000000000000E+00   0.00000000000000E+00   0.00000000000000E+00   0.00000000000000E+00
     -1.05682908838894E-17  -1.84287470863250E-31  -1.05682908838896E-17   3.76146398915414E-18   0.00000000000000E+00
      0.00000000000000E+00   0.00000000000000E+00   0.00000000000000E+00  -1.85884992929828E-21  -1.78662645516849E-18
     -1.78848530509779E-18  -6.40507644654815E-18
      6.54881599009861E-02
      1.00000000000000E+00   1.00000000000000E+00   0.00000000000000E+00   0.00000000000000E+00   3.39446357030695E-17
      1.01457917363713E-22   3.39447371609868E-17   6.21476071932750E-18  -3.69023680198028E-01  -3.69023680198028E-01
      0.00000000000000E+00   0.00000000000000E+00   0.00000000000000E+00   0.00000000000000E+00   0.00000000000000E+00
     -3.49491073936657E-18   0.00000000000000E+00   0.00000000000000E+00   0.00000000000000E+00   0.00000000000000E+00
     -3.22348143600920E-17  -5.12829203076686E-31  -3.22348143600925E-17   3.71422001381416E-18   0.00000000000000E+00
      0.00000000000000E+00   0.00000000000000E+00   0.00000000000000E+00  -1.86564864862907E-21  -2.08524585616526E-18
     -2.08711150481389E-18  -6.43406999377509E-18
      8.78880365797527E-02
      1.00000000000000E+00   1.00000000000000E+00   0.00000000000000E+00   0.00000000000000E+00   1.48905845073047E-16
      1.01443697736232E-22   1.48905946516745E-16   6.17592006361784E-18  -3.24223926840495E-01  -3.24223926840495E-01
      0.00000000000000E+00   0.00000000000000E+00   0.00000000000000E+00   0.00000000000000E+00   0.00000000000000E+00
     -3.35441426026552E-18   0.00000000000000E+00   0.00000000000000E+00   0.00000000000000E+00   0.00000000000000E+00
     -1.47280677099839E-16  -2.04090886188623E-30  -1.47280677099841E-16   3.65060777293650E-18   0.00000000000000E+00
      0.00000000000000E+00   0.00000000000000E+00   0.00000000000000E+00  -1.87426924166216E-21  -4.29696167618053E-18
     -4.29883594542219E-18  -6.47211357628882E-18
      1.17605206306916E-01
      1.00000000000000E+00   1.00000000000000E+00   0.00000000000000E+00   0.00000000000000E+00   1.15288225953057E-15
      1.01425078009822E-22   1.15288236095565E-15   6.12358550354206E-18  -2.64789587386167E-01  -2.64789587386167E-01
      0.00000000000000E+00   0.00000000000000E+00   0.00000000000000E+00   0.00000000000000E+00   0.00000000000000E+00
     -3.16580883632595E-18   0.00000000000000E+00   0.00000000000000E+00   0.00000000000000E+00   0.00000000000000E+00
     -1.15124304475193E-15  -1.31462344051253E-29  -1.15124304475194E-15   3.56407366155782E-18   0.00000000000000E+00
      0.00000000000000E+00   0.00000000000000E+00   0.00000000000000E+00  -1.88518537901914E-21  -1.62360231571513E-18
     -1.62548750109415E-18  -6.52185032877393E-18
      1.56336584184653E-01
      1.00000000000000E+00   1.00000000000000E+00   0.00000000000000E+00   0.00000000000000E+00   1.73582553817536E-14
      1.01401230106265E-22   1.73582554831549E-14   6.05391984795740E-18  -1.87326831630694E-01  -1.87326831630694E-01
      0.00000000000000E+00   0.00000000000000E+00   0.00000000000000E+00   0.00000000000000E+00   0.00000000000000E+00
     -2.91365063861489E-18   0.00000000000000E+00   0.00000000000000E+00   0.00000000000000E+00   0.00000000000000E+00
     -1.73566632876766E-14  -1.51461906142661E-28  -1.73566632876768E-14   3.44507736304478E-18   0.00000000000000E+00
      0.00000000000000E+00   0.00000000000000E+00   0.00000000000000E+00  -1.89876654488397E-21  -1.58307107389676E-18
     -1.58496984044164E-18  -6.58534657238728E-18
      2.05912747868156E-01
      1.00000000000000E+00   1.00000000000000E+00   0.00000000000000E+00   0.00000000000000E+00   5.71520233969843E-13
      1.01371408440399E-22   5.71520234071214E-13   5.96239127545185E-18  -8.81745042636883E-02  -8.81745042636883E-02
      0.00000000000000E+00   0.00000000000000E+00   0.00000000000000E+00   0.00000000000000E+00   0.00000000000000E+00
     -2.57183851838110E-18   0.00000000000000E+00   0.00000000000000E+00   0.00000000000000E+00   0.00000000000000E+00
     -5.71518994884936E-13  -2.32526265939225E-27  -5.71518994884938E-13   3.27371760255640E-18   0.00000000000000E+00
      0.00000000000000E+00   0.00000000000000E+00   0.00000000000000E+00  -1.91540657853862E-21  -1.22424248304087E-18
     -1.22615788961941E-18  -6.66427035962715E-18
      2.55912747868156E-01
      1.00000000000000E+00   1.00000000000000E+00   0.00000000000000E+00   0.00000000000000E+00   1.94636572651174E-11
      1.01341995148917E-22   1.94636572652188E-11   5.86757539754851E-18   1.18254957363116E-02   1.18254957363116E-02
      0.00000000000000E+00   0.00000000000000E+00   0.00000000000000E+00   0.00000000000000E+00   0.00000000000000E+00
     -2.19575241144787E-18   0.00000000000000E+00   0.00000000000000E+00   0.00000000000000E+00   0.00000000000000E+00
     -1.94636565885835E-11  -8.51397097969855E-27  -1.94636565885835E-11   3.06965363606523E-18   0.00000000000000E+00
      0.00000000000000E+00   0.00000000000000E+00   0.00000000000000E+00  -1.93202145587068E-21  -6.96393005864510E-19
     -6.98325027320380E-19  -6.74147662216588E-18
      3.05912747868156E-01
      1.00000000000000E+00   1.00000000000000E+00   0.00000000000000E+00   0.00000000000000E+00   6.53282056894518E-10
      1.01313940563968E-22   6.53282056894619E-10   5.76999291756421E-18   1.11825495736312E-01   1.11825495736312E-01
      0.00000000000000E+00   0.00000000000000E+00   0.00000000000000E+00   0.00000000000000E+00   0.00000000000000E+00
     -1.78727766263849E-18   0.00000000000000E+00   0.00000000000000E+00   0.00000000000000E+00   0.00000000000000E+00
     -6.53282056314191E-10  -6.34553379389838E-27  -6.53282056314191E-10   2.83440454224651E-18   0.00000000000000E+00
      0.00000000000000E+00   0.00000000000000E+00   0.00000000000000E+00  -1.95173140327336E-21  -5.31773435001942E-19
     -5.33725166405215E-19  -6.81711979717223E-18
      3.55912747868156E-01
      1.00000000000000E+00   1.00000000000000E+00   0.00000000000000E+00   0.00000000000000E+00   2.14762866298410E-08
      1.01312136579231E-22   2.14762866298411E-08   5.66782038739974E-18   2.11825495736312E-01   2.11825495736312E-01
      0.00000000000000E+00   0.00000000000000E+00   0.00000000000000E+00   0.00000000000000E+00   0.00000000000000E+00
     -1.34184816449216E-18   0.00000000000000E+00   0.00000000000000E+00   0.00000000000000E+00   0.00000000000000E+00
     -2.14762866293520E-08  -2.89705476192804E-27  -2.14762866293520E-08   2.57005581517893E-18   0.00000000000000E+00
      0.00000000000000E+00   0.00000000000000E+00   0.00000000000000E+00  -1.98002425050048E-21  -4.84814780204482E-19
     -4.86794804454983E-19  -6.89602803808651E-18
      4.05912747868156E-01
      1.00000000000000E+00   1.00000000000000E+00   0.00000000000000E+00   0.00000000000000E+00   4.93539144733674E-07
      1.01883313916610E-22   4.93539144733674E-07   5.54931228738874E-18   3.11825495736312E-01   3.11825495736312E-01
      0.00000000000000E+00   0.00000000000000E+00   0.00000000000000E+00   0.00000000000000E+00   0.00000000000000E+00
     -7.98167732585784E-19   0.00000000000000E+00   0.00000000000000E+00   0.00000000000000E+00   0.00000000000000E+00
     -4.93539144733193E-07  -1.71865226780546E-27  -4.93539144733193E-07   2.29763647464796E-18   0.00000000000000E+00
      0.00000000000000E+00   0.00000000000000E+00   0.00000000000000E+00  -2.09012434290784E-21  -4.64849060021670E-19
     -4.66939184364578E-19  -7.04878102945091E-18
      4.55912747868156E-01
      1.00000000000000E+00   1.00000000000000E+00   0.00000000000000E+00   0.00000000000000E+00   3.03849616496228E-06
      1.05148561362803E-22   3.03849616496228E-06   5.37085529344159E-18   4.11825495736312E-01   4.11825495736312E-01