DF-ISE text

Info {
  version   = 1.0
  type      = xyplot
  datasets  = [
    "time"
    "D OuterVoltage" "D InnerVoltage" "D QuasiFermiPotential" "D DisplacementCurrent" "D eCurrent"
    "D hCurrent" "D TotalCurrent" "D Charge" "G OuterVoltage" "G InnerVoltage"
    "G QuasiFermiPotential" "G DisplacementCurrent" "G eCurrent" "G hCurrent" "G TotalCurrent"
    "G Charge" "S OuterVoltage" "S InnerVoltage" "S QuasiFermiPotential" "S DisplacementCurrent"
    "S eCurrent" "S hCurrent" "S TotalCurrent" "S Charge" "B OuterVoltage"
    "B InnerVoltage" "B QuasiFermiPotential" "B DisplacementCurrent" "B eCurrent" "B hCurrent"
    "B TotalCurrent" "B Charge" ]
  functions = [
    Time
    OuterVoltage InnerVoltage QuasiFermiPotential DisplacementCurrent eCurrent
    hCurrent TotalCurrent Charge OuterVoltage InnerVoltage
    QuasiFermiPotential DisplacementCurrent eCurrent hCurrent TotalCurrent
    Charge OuterVoltage InnerVoltage QuasiFermiPotential DisplacementCurrent
    eCurrent hCurrent TotalCurrent Charge OuterVoltage
    InnerVoltage QuasiFermiPotential DisplacementCurrent eCurrent hCurrent
    TotalCurrent Charge ]
}

Data {
      0.00000000000000E+00
      0.00000000000000E+00   0.00000000000000E+00   0.00000000000000E+00   0.00000000000000E+00  -2.04050493489957E-21
     -6.18167073657796E-39  -2.04050493489957E-21   3.93170401367996E-18  -5.00000000000000E-01  -5.00000000000000E-01
      0.00000000000000E+00   0.00000000000000E+00   0.00000000000000E+00   0.00000000000000E+00   0.00000000000000E+00
     -2.88638762869256E-18   0.00000000000000E+00   0.00000000000000E+00   0.00000000000000E+00   0.00000000000000E+00
     -2.04266113687849E-21  -2.47522955743188E-38  -2.04266113687849E-21   3.92877186904991E-18   0.00000000000000E+00
      0.00000000000000E+00   0.00000000000000E+00   0.00000000000000E+00  -7.14582202224828E-37  -2.69228566308655E-22
     -2.69228566308655E-22  -4.97408825403731E-18
      0.00000000000000E+00
      0.00000000000000E+00   0.00000000000000E+00   0.00000000000000E+00   0.00000000000000E+00   9.63024971503163E-21
      1.21924409155242E-36   9.63024971503163E-21   3.93029779569320E-18  -5.00000000000000E-01  -5.00000000000000E-01
      0.00000000000000E+00   0.00000000000000E+00   0.00000000000000E+00   0.00000000000000E+00   0.00000000000000E+00
     -2.88624917254589E-18   0.00000000000000E+00   0.00000000000000E+00   0.00000000000000E+00   0.00000000000000E+00
      1.85913597944872E-20   1.28577131096723E-36   1.85913597944872E-20   3.92734426755409E-18   0.00000000000000E+00
      0.00000000000000E+00   0.00000000000000E+00   0.00000000000000E+00   7.38653790687700E-37   2.46753713344711E-22
      2.46753713344712E-22  -4.97139289070139E-18
      0.00000000000000E+00
      0.00000000000000E+00   0.00000000000000E+00   0.00000000000000E+00   0.00000000000000E+00  -5.65413714494554E-22
      1.21457620561356E-36  -5.65413714494553E-22   3.93029779569320E-18  -5.00000000000000E-01  -5.00000000000000E-01
      0.00000000000000E+00   0.00000000000000E+00   0.00000000000000E+00   0.00000000000000E+00   0.00000000000000E+00
     -2.88624917254589E-18   0.00000000000000E+00   0.00000000000000E+00   0.00000000000000E+00   0.00000000000000E+00
      1.85467187841018E-20   1.33363141800734E-36   1.85467187841018E-20   3.92734426755409E-18   0.00000000000000E+00
      0.00000000000000E+00   0.00000000000000E+00   0.00000000000000E+00  -1.41402532400350E-37  -1.29446286586958E-22
     -1.29446286586958E-22  -4.97139289070139E-18
      1.00000000000000E-02
      1.00000000000000E-02   1.00000000000000E-02   0.00000000000000E+00   0.00000000000000E+00   2.92412552187455E-19
      3.58442015088504E-23   2.92448396388964E-19   3.95873925083557E-18  -5.00000000000000E-01  -5.00000000000000E-01
      0.00000000000000E+00   0.00000000000000E+00   0.00000000000000E+00   0.00000000000000E+00   0.00000000000000E+00
     -2.89934845660862E-18   0.00000000000000E+00   0.00000000000000E+00   0.00000000000000E+00   0.00000000000000E+00
     -1.32769670699641E-19  -3.07518127546360E-35  -1.32769670699641E-19   3.92703716516239E-18   0.00000000000000E+00
      0.00000000000000E+00   0.00000000000000E+00   0.00000000000000E+00  -4.52016188809428E-22  -4.82122088405143E-20
     -4.86642250293238E-20  -4.98642795938935E-18
      2.28000000000000E-02
      2.28000000000000E-02   2.28000000000000E-02   0.00000000000000E+00   0.00000000000000E+00   2.64246628292694E-19
      6.52728813330992E-23   2.64311901174027E-19   3.99498486409404E-18  -5.00000000000000E-01  -5.00000000000000E-01
      0.00000000000000E+00   0.00000000000000E+00   0.00000000000000E+00   0.00000000000000E+00   0.00000000000000E+00
     -2.91604211164802E-18   0.00000000000000E+00   0.00000000000000E+00   0.00000000000000E+00   0.00000000000000E+00
     -1.49838907099662E-19  -7.71340208170037E-35  -1.49838907099662E-19   3.92664239625279E-18   0.00000000000000E+00
      0.00000000000000E+00   0.00000000000000E+00   0.00000000000000E+00  -8.26033046978569E-22  -1.01992289958679E-19
     -1.02818323005657E-19  -5.00558514869882E-18
      3.97813333333333E-02
      3.97813333333333E-02   3.97813333333333E-02   0.00000000000000E+00   0.00000000000000E+00   3.29566489894434E-19
      8.70672231879921E-23   3.29653557117622E-19   4.04278992163986E-18  -5.00000000000000E-01  -5.00000000000000E-01
      0.00000000000000E+00   0.00000000000000E+00   0.00000000000000E+00   0.00000000000000E+00   0.00000000000000E+00
     -2.93805415110895E-18   0.00000000000000E+00   0.00000000000000E+00   0.00000000000000E+00   0.00000000000000E+00
     -1.60285412592733E-19  -1.48379439104501E-34  -1.60285412592733E-19   3.92611588688602E-18   0.00000000000000E+00
      0.00000000000000E+00   0.00000000000000E+00   0.00000000000000E+00  -1.10557767147289E-21  -1.68156355931534E-19
     -1.69261933603007E-19  -5.03085165741692E-18
      6.23099022222222E-02
      6.23099022222222E-02   6.23099022222222E-02   0.00000000000000E+00   0.00000000000000E+00   4.02265366058731E-19
      1.00310846389263E-22   4.02365676905120E-19   4.10570531094162E-18  -5.00000000000000E-01  -5.00000000000000E-01
      0.00000000000000E+00   0.00000000000000E+00   0.00000000000000E+00   0.00000000000000E+00   0.00000000000000E+00
     -2.96700005601816E-18   0.00000000000000E+00   0.00000000000000E+00   0.00000000000000E+00   0.00000000000000E+00
     -1.36932566996145E-19  -2.57417765143320E-34  -1.36932566996145E-19   3.92541280239689E-18   0.00000000000000E+00
      0.00000000000000E+00   0.00000000000000E+00   0.00000000000000E+00  -1.28002605629989E-21  -3.04152664591035E-19
     -3.05432690647335E-19  -5.06411805732034E-18
      9.21978036148148E-02
      9.21978036148148E-02   9.21978036148148E-02   0.00000000000000E+00   0.00000000000000E+00   4.98435674000720E-19
      1.06216569952620E-22   4.98541890570672E-19   4.18825121758916E-18  -5.00000000000000E-01  -5.00000000000000E-01
      0.00000000000000E+00   0.00000000000000E+00   0.00000000000000E+00   0.00000000000000E+00   0.00000000000000E+00
     -3.00490027027417E-18   0.00000000000000E+00   0.00000000000000E+00   0.00000000000000E+00   0.00000000000000E+00
     -1.66620712359271E-19  -4.10950805705891E-34  -1.66620712359271E-19   3.92447278589367E-18   0.00000000000000E+00
      0.00000000000000E+00   0.00000000000000E+00   0.00000000000000E+00  -1.36908530279399E-21  -9.47561051557601E-19
     -9.48930136860395E-19  -5.10782373320866E-18
      1.31849086128988E-01
      1.31849086128988E-01   1.31849086128988E-01   0.00000000000000E+00   0.00000000000000E+00   6.11420001695553E-19
      1.07125085123259E-22   6.11527126780677E-19   4.29605894082613E-18  -5.00000000000000E-01  -5.00000000000000E-01
      0.00000000000000E+00   0.00000000000000E+00   0.00000000000000E+00   0.00000000000000E+00   0.00000000000000E+00
     -3.05417487460191E-18   0.00000000000000E+00   0.00000000000000E+00   0.00000000000000E+00   0.00000000000000E+00
     -1.62134547188088E-19  -6.25002733706503E-34  -1.62134547188088E-19   3.92321495430292E-18   0.00000000000000E+00
      0.00000000000000E+00   0.00000000000000E+00   0.00000000000000E+00  -1.41306490184544E-21  -4.27644250734788E-19
     -4.29057315636633E-19  -5.16509902052714E-18
      1.83527924339126E-01
      1.83527924339126E-01   1.83527924339126E-01   0.00000000000000E+00   0.00000000000000E+00   7.34341423535130E-19
      1.05721536800809E-22   7.34447145071931E-19   4.43347715057923E-18  -5.00000000000000E-01  -5.00000000000000E-01
      0.00000000000000E+00   0.00000000000000E+00   0.00000000000000E+00   0.00000000000000E+00   0.00000000000000E+00
     -3.11639954750693E-18   0.00000000000000E+00   0.00000000000000E+00   0.00000000000000E+00   0.00000000000000E+00
     -1.91442069476217E-19  -9.26101437881491E-34  -1.91442069476218E-19   3.92156176655856E-18   0.00000000000000E+00
      0.00000000000000E+00   0.00000000000000E+00   0.00000000000000E+00  -1.44946100872307E-21  -5.23533474047645E-19
     -5.24982935056368E-19  -5.23863936963085E-18
      2.50882676806340E-01
      2.50882676806340E-01   2.50882676806340E-01   0.00000000000000E+00   0.00000000000000E+00   8.85696463911655E-19
      1.03689577831230E-22   8.85800153489486E-19   4.60712912609512E-18  -5.00000000000000E-01  -5.00000000000000E-01
      0.00000000000000E+00   0.00000000000000E+00   0.00000000000000E+00   0.00000000000000E+00   0.00000000000000E+00
     -3.19368056602385E-18   0.00000000000000E+00   0.00000000000000E+00   0.00000000000000E+00   0.00000000000000E+00
     -2.20109214983882E-19  -1.56902903043355E-33  -2.20109214983884E-19   3.91939152018486E-18   0.00000000000000E+00
      0.00000000000000E+00   0.00000000000000E+00   0.00000000000000E+00  -1.49606409127544E-21  -6.54212536057072E-19
     -6.55708600148347E-19  -5.33284008025613E-18
      3.38668370855276E-01
      3.38668370855276E-01   3.38668370855276E-01   0.00000000000000E+00   0.00000000000000E+00   1.16696724736537E-18
      1.01482931033875E-22   1.16706873029640E-18   4.82488586393339E-18  -5.00000000000000E-01  -5.00000000000000E-01
      0.00000000000000E+00   0.00000000000000E+00   0.00000000000000E+00   0.00000000000000E+00   0.00000000000000E+00
     -3.28804513696493E-18   0.00000000000000E+00   0.00000000000000E+00   0.00000000000000E+00   0.00000000000000E+00
     -2.42044024831054E-19  -2.67374454134249E-33  -2.42044024831056E-19   3.91654109378867E-18   0.00000000000000E+00
      0.00000000000000E+00   0.00000000000000E+00   0.00000000000000E+00  -1.55618258153927E-21  -9.18070983809037E-19
     -9.19627166390576E-19  -5.45338182075712E-18
      4.53082392099055E-01
      4.53082392099055E-01   4.53082392099055E-01   0.00000000000000E+00   0.00000000000000E+00   1.53540268636172E-18
      9.94070014550187E-23   1.53550209336317E-18   5.09834151893660E-18  -5.00000000000000E-01  -5.00000000000000E-01
      0.00000000000000E+00   0.00000000000000E+00   0.00000000000000E+00   0.00000000000000E+00   0.00000000000000E+00
     -3.40328437102789E-18   0.00000000000000E+00   0.00000000000000E+00   0.00000000000000E+00   0.00000000000000E+00
     -2.89508836355024E-19  -4.09608610009948E-33  -2.89508836355028E-19   3.91277583586657E-18   0.00000000000000E+00
      0.00000000000000E+00   0.00000000000000E+00   0.00000000000000E+00  -1.62664752146424E-21  -1.25772562117265E-18
     -1.25935226869412E-18  -5.60783298377528E-18
      6.02201999786781E-01
      6.02201999786781E-01   6.02201999786781E-01   0.00000000000000E+00   0.00000000000000E+00   1.78055525784671E-18
      9.92995841860555E-23   1.78065455743089E-18   5.44517208723568E-18  -5.00000000000000E-01  -5.00000000000000E-01
      0.00000000000000E+00   0.00000000000000E+00   0.00000000000000E+00   0.00000000000000E+00   0.00000000000000E+00
     -3.54691571144657E-18   0.00000000000000E+00   0.00000000000000E+00   0.00000000000000E+00   0.00000000000000E+00
     -3.09155400270088E-19  -5.40333688744705E-33  -3.09155400270093E-19   3.90777536174884E-18   0.00000000000000E+00
      0.00000000000000E+00   0.00000000000000E+00   0.00000000000000E+00  -1.69834246601141E-21  -1.44277232439242E-18
     -1.44447066685843E-18  -5.80603173753796E-18
      7.93075097627070E-01
      7.93075097627070E-01   7.93075097627070E-01   0.00000000000000E+00   0.00000000000000E+00   1.99106157573603E-18
      1.00419455818359E-22   1.99116199519185E-18   5.87631126497645E-18  -5.00000000000000E-01  -5.00000000000000E-01
      0.00000000000000E+00   0.00000000000000E+00   0.00000000000000E+00   0.00000000000000E+00   0.00000000000000E+00
     -3.72236746551008E-18   0.00000000000000E+00   0.00000000000000E+00   0.00000000000000E+00   0.00000000000000E+00
     -4.03821492556523E-19  -7.32975578487306E-33  -4.03821492556530E-19   3.90130378397178E-18   0.00000000000000E+00
      0.00000000000000E+00   0.00000000000000E+00   0.00000000000000E+00  -1.77269796355110E-21  -1.56768772568979E-18
     -1.56946042365334E-18  -6.05524758343816E-18
      9.93075097627070E-01
      9.93075097627070E-01   9.93075097627070E-01   0.00000000000000E+00   0.00000000000000E+00   2.37613493866742E-18
      1.01464054855070E-22   2.37623640272227E-18   6.31090599055488E-18  -5.00000000000000E-01  -5.00000000000000E-01
      0.00000000000000E+00   0.00000000000000E+00   0.00000000000000E+00   0.00000000000000E+00   0.00000000000000E+00
     -3.89430467075647E-18   0.00000000000000E+00   0.00000000000000E+00   0.00000000000000E+00   0.00000000000000E+00
     -5.41095600133816E-19  -1.11603070477576E-32  -5.41095600133827E-19   3.89455208145442E-18   0.00000000000000E+00
      0.00000000000000E+00   0.00000000000000E+00   0.00000000000000E+00  -1.83536388031195E-21  -1.84830546789937E-18
     -1.85014083177968E-18  -6.31115340125284E-18
      1.00000000000000E+00
      1.00000000000000E+00   1.00000000000000E+00   0.00000000000000E+00   0.00000000000000E+00   2.37039919604817E-18
      1.01500246959854E-22   2.37050069629513E-18   6.32570035099782E-18  -5.00000000000000E-01  -5.00000000000000E-01
      0.00000000000000E+00   0.00000000000000E+00   0.00000000000000E+00   0.00000000000000E+00   0.00000000000000E+00
     -3.90008140064981E-18   0.00000000000000E+00   0.00000000000000E+00   0.00000000000000E+00   0.00000000000000E+00
     -5.46230245773447E-19  -1.13582841414298E-32  -5.46230245773458E-19   3.89431858197342E-18   0.00000000000000E+00
      0.00000000000000E+00   0.00000000000000E+00   0.00000000000000E+00  -1.83732696219327E-21  -1.86134745981818E-18
     -1.86318478678038E-18  -6.31993753232142E-18
      1.00000000000000E-03
      1.00000000000000E+00   1.00000000000000E+00   0.00000000000000E+00   0.00000000000000E+00   2.42836913957530E-18
      1.01499593823949E-22   2.42847063916912E-18   6.32403294857964E-18  -4.98000000000000E-01  -4.98000000000000E-01
      0.00000000000000E+00   0.00000000000000E+00   0.00000000000000E+00   0.00000000000000E+00   0.00000000000000E+00
     -3.89394981034877E-18   0.00000000000000E+00   0.00000000000000E+00   0.00000000000000E+00   0.00000000000000E+00
     -5.54696138039385E-19  -1.19868530727966E-32  -5.54696138039397E-19   3.89163448433831E-18   0.00000000000000E+00
      0.00000000000000E+00   0.00000000000000E+00   0.00000000000000E+00  -1.83780264797248E-21  -1.86016704681639E-18
     -1.86200484946436E-18  -6.32171762256917E-18
      2.30333333333333E-03
      1.00000000000000E+00   1.00000000000000E+00   0.00000000000000E+00   0.00000000000000E+00   2.47025872704086E-18
      1.01498742825414E-22   2.47036022578368E-18   6.32185858125261E-18  -4.95393333333333E-01  -4.95393333333333E-01
      0.00000000000000E+00   0.00000000000000E+00   0.00000000000000E+00   0.00000000000000E+00   0.00000000000000E+00
     -3.88595582265376E-18   0.00000000000000E+00   0.00000000000000E+00   0.00000000000000E+00   0.00000000000000E+00
     -6.26410526803151E-19  -1.28619575170911E-32  -6.26410526803163E-19   3.88813288246699E-18   0.00000000000000E+00
      0.00000000000000E+00   0.00000000000000E+00   0.00000000000000E+00  -1.83842049863715E-21   1.99079336487922E-16
      1.99077498067424E-16  -6.32403564106584E-18
      4.06283333333333E-03
      1.00000000000000E+00   1.00000000000000E+00   0.00000000000000E+00   0.00000000000000E+00   2.54942626883043E-18
      1.01497594441209E-22   2.54952776642487E-18   6.31892105374283E-18  -4.91874333333333E-01  -4.91874333333333E-01
      0.00000000000000E+00   0.00000000000000E+00   0.00000000000000E+00   0.00000000000000E+00   0.00000000000000E+00
     -3.87515947195755E-18   0.00000000000000E+00   0.00000000000000E+00   0.00000000000000E+00   0.00000000000000E+00
     -6.67551336034090E-19  -1.41522974780144E-32  -6.67551336034104E-19   3.88339979021727E-18   0.00000000000000E+00
      0.00000000000000E+00   0.00000000000000E+00   0.00000000000000E+00  -1.83925077278513E-21  -1.84941920805582E-18
     -1.85125845882860E-18  -6.32716137200255E-18
      6.39710333333333E-03
      1.00000000000000E+00   1.00000000000000E+00   0.00000000000000E+00   0.00000000000000E+00   2.65782814563685E-18
      1.01496071754148E-22   2.65792964170861E-18   6.31502014778353E-18  -4.87205793333333E-01  -4.87205793333333E-01
      0.00000000000000E+00   0.00000000000000E+00   0.00000000000000E+00   0.00000000000000E+00   0.00000000000000E+00
     -3.86082836754521E-18   0.00000000000000E+00   0.00000000000000E+00   0.00000000000000E+00   0.00000000000000E+00
     -7.61536858009581E-19  -1.60793850974944E-32  -7.61536858009597E-19   3.87711014229670E-18   0.00000000000000E+00
      0.00000000000000E+00   0.00000000000000E+00   0.00000000000000E+00  -1.84034547927879E-21  -1.84169614640139E-18
     -1.84353649188067E-18  -6.33130192253501E-18
      9.49390153333333E-03
      1.00000000000000E+00   1.00000000000000E+00   0.00000000000000E+00   0.00000000000000E+00   2.78464365396698E-18
      1.01494053160478E-22   2.78474514802014E-18   6.30983826381811E-18  -4.81012196933333E-01  -4.81012196933333E-01
      0.00000000000000E+00   0.00000000000000E+00   0.00000000000000E+00   0.00000000000000E+00   0.00000000000000E+00
     -3.84180173525636E-18   0.00000000000000E+00   0.00000000000000E+00   0.00000000000000E+00   0.00000000000000E+00
     -9.24185975199411E-19  -1.90738962070105E-32  -9.24185975199430E-19   3.86874777923746E-18   0.00000000000000E+00
      0.00000000000000E+00   0.00000000000000E+00   0.00000000000000E+00  -1.84178583170528E-21  -1.83165276297598E-18
     -1.83349454880769E-18  -6.33678430779921E-18
      1.36023204786667E-02
      1.00000000000000E+00   1.00000000000000E+00   0.00000000000000E+00   0.00000000000000E+00   3.00784735084378E-18
      1.01491377889629E-22   3.00794884222167E-18   6.30295181736152E-18  -4.72795359042667E-01  -4.72795359042667E-01
      0.00000000000000E+00   0.00000000000000E+00   0.00000000000000E+00   0.00000000000000E+00   0.00000000000000E+00
     -3.81653494189018E-18   0.00000000000000E+00   0.00000000000000E+00   0.00000000000000E+00   0.00000000000000E+00
     -1.17413896333193E-18  -2.39811902440274E-32  -1.17413896333196E-18   3.85762236279059E-18   0.00000000000000E+00
      0.00000000000000E+00   0.00000000000000E+00   0.00000000000000E+00  -1.84367568915570E-21  -1.81877495906677E-18
     -1.82061863475592E-18  -6.34403923826193E-18
      1.90528229461422E-02
      1.00000000000000E+00   1.00000000000000E+00   0.00000000000000E+00   0.00000000000000E+00   3.45274666347289E-18
      1.01487833709929E-22   3.45284815130660E-18   6.29379485096599E-18  -4.61894354107716E-01  -4.61894354107716E-01
      0.00000000000000E+00   0.00000000000000E+00   0.00000000000000E+00   0.00000000000000E+00   0.00000000000000E+00
     -3.78297049550560E-18   0.00000000000000E+00   0.00000000000000E+00   0.00000000000000E+00   0.00000000000000E+00
     -1.63254785207699E-18  -3.26215497901344E-32  -1.63254785207703E-18   3.84280854105233E-18   0.00000000000000E+00
      0.00000000000000E+00   0.00000000000000E+00   0.00000000000000E+00  -1.84614616313758E-21  -1.80402747737814E-18
     -1.80587362354128E-18  -6.35363289651272E-18
      2.62838228863265E-02
      1.00000000000000E+00   1.00000000000000E+00   0.00000000000000E+00   0.00000000000000E+00   4.34794295004541E-18
      1.01483141120179E-22   4.34804443318653E-18   6.28160928747873E-18  -4.47432354227347E-01  -4.47432354227347E-01
      0.00000000000000E+00   0.00000000000000E+00   0.00000000000000E+00   0.00000000000000E+00   0.00000000000000E+00
     -3.73836403232457E-18   0.00000000000000E+00   0.00000000000000E+00   0.00000000000000E+00   0.00000000000000E+00
     -2.54683728839363E-18  -4.93800144788557E-32  -2.54683728839368E-18   3.82306248046145E-18   0.00000000000000E+00
      0.00000000000000E+00   0.00000000000000E+00   0.00000000000000E+00  -1.84936002678098E-21  -1.78572226367866E-18
     -1.78757162370545E-18  -6.36630773561561E-18
      3.58769494736376E-02
      1.00000000000000E+00   1.00000000000000E+00   0.00000000000000E+00   0.00000000000000E+00   6.42909273695401E-18
      1.01476933391276E-22   6.42919421388740E-18   6.26537609708219E-18  -4.28246101052725E-01  -4.28246101052725E-01
      0.00000000000000E+00   0.00000000000000E+00   0.00000000000000E+00   0.00000000000000E+00   0.00000000000000E+00
     -3.67904792991589E-18   0.00000000000000E+00   0.00000000000000E+00   0.00000000000000E+00   0.00000000000000E+00
     -4.63134072330202E-18  -8.64355705147625E-32  -4.63134072330211E-18   3.79670618382651E-18   0.00000000000000E+00
      0.00000000000000E+00   0.00000000000000E+00   0.00000000000000E+00  -1.85351547392795E-21  -1.76950133795005E-18
     -1.77135485342398E-18  -6.38303435099282E-18
      4.86038307461369E-02
      1.00000000000000E+00   1.00000000000000E+00   0.00000000000000E+00   0.00000000000000E+00   1.22944765175141E-17
      1.01468731943308E-22   1.22945779862460E-17   6.24371831374887E-18  -4.02792338507726E-01  -4.02792338507726E-01
      0.00000000000000E+00   0.00000000000000E+00   0.00000000000000E+00   0.00000000000000E+00   0.00000000000000E+00
     -3.60010585635486E-18   0.00000000000000E+00   0.00000000000000E+00   0.00000000000000E+00   0.00000000000000E+00
     -1.05681730190269E-17  -1.84287518076798E-31  -1.05681730190270E-17   3.76146398915414E-18   0.00000000000000E+00
      0.00000000000000E+00   0.00000000000000E+00   0.00000000000000E+00  -1.85884992929828E-21  -1.78657436811469E-18
     -1.78843321804399E-18  -6.40507644654814E-18
      6.54881599009861E-02
      1.00000000000000E+00   1.00000000000000E+00   0.00000000000000E+00   0.00000000000000E+00   3.39452070433058E-17
      1.01457917363713E-22   3.39453085012231E-17   6.21476071932750E-18  -3.69023680198028E-01  -3.69023680198028E-01
      0.00000000000000E+00   0.00000000000000E+00   0.00000000000000E+00   0.00000000000000E+00   0.00000000000000E+00
     -3.49491073936657E-18   0.00000000000000E+00   0.00000000000000E+00   0.00000000000000E+00   0.00000000000000E+00
     -3.22348143600920E-17  -5.12829139423340E-31  -3.22348143600925E-17   3.71422001381416E-18   0.00000000000000E+00
      0.00000000000000E+00   0.00000000000000E+00   0.00000000000000E+00  -1.86564864862907E-21  -2.08509099347215E-18
     -2.08695664212077E-18  -6.43406999377509E-18
      8.78880365797527E-02
      1.00000000000000E+00   1.00000000000000E+00   0.00000000000000E+00   0.00000000000000E+00   1.48905850792646E-16
      1.01443697736232E-22   1.48905952236344E-16   6.17592006361784E-18  -3.24223926840495E-01  -3.24223926840495E-01
      0.00000000000000E+00   0.00000000000000E+00   0.00000000000000E+00   0.00000000000000E+00   0.00000000000000E+00
     -3.35441426026552E-18   0.00000000000000E+00   0.00000000000000E+00   0.00000000000000E+00   0.00000000000000E+00
     -1.47280667255678E-16  -2.04090884715405E-30  -1.47280667255680E-16   3.65060777293650E-18   0.00000000000000E+00
      0.00000000000000E+00   0.00000000000000E+00   0.00000000000000E+00  -1.87426924166216E-21  -4.29698464330051E-18
     -4.29885891254217E-18  -6.47211357628882E-18
      1.17605206306916E-01
      1.00000000000000E+00   1.00000000000000E+00   0.00000000000000E+00   0.00000000000000E+00   1.15288176314901E-15
      1.01425078009822E-22   1.15288186457409E-15   6.12358550354206E-18  -2.64789587386167E-01  -2.64789587386167E-01
      0.00000000000000E+00   0.00000000000000E+00   0.00000000000000E+00   0.00000000000000E+00   0.00000000000000E+00
     -3.16580883632595E-18   0.00000000000000E+00   0.00000000000000E+00   0.00000000000000E+00   0.00000000000000E+00
     -1.15124365103914E-15  -1.31462344031273E-29  -1.15124365103915E-15   3.56407366155782E-18   0.00000000000000E+00
      0.00000000000000E+00   0.00000000000000E+00   0.00000000000000E+00  -1.88518537901914E-21  -1.62360080732838E-18
     -1.62548599270740E-18  -6.52185032877393E-18
      1.56336584184653E-01
      1.00000000000000E+00   1.00000000000000E+00   0.00000000000000E+00   0.00000000000000E+00   1.73582553010919E-14
      1.01401230106265E-22   1.73582554024931E-14   6.05391984795739E-18  -1.87326831630694E-01  -1.87326831630694E-01
      0.00000000000000E+00   0.00000000000000E+00   0.00000000000000E+00   0.00000000000000E+00   0.00000000000000E+00
     -2.91365063861489E-18   0.00000000000000E+00   0.00000000000000E+00   0.00000000000000E+00   0.00000000000000E+00
     -1.73566632876766E-14  -1.51461906062597E-28  -1.73566632876768E-14   3.44507736304478E-18   0.00000000000000E+00
      0.00000000000000E+00   0.00000000000000E+00   0.00000000000000E+00  -1.89876654488397E-21  -1.58301501279470E-18
     -1.58491377933959E-18  -6.58534657238728E-18
      2.05912747868156E-01
      1.00000000000000E+00   1.00000000000000E+00   0.00000000000000E+00   0.00000000000000E+00   5.71520233682021E-13
      1.01371408440399E-22   5.71520233783393E-13   5.96239127545185E-18  -8.81745042636883E-02  -8.81745042636883E-02
      0.00000000000000E+00   0.00000000000000E+00   0.00000000000000E+00   0.00000000000000E+00   0.00000000000000E+00
     -2.57183851838110E-18   0.00000000000000E+00   0.00000000000000E+00   0.00000000000000E+00   0.00000000000000E+00
     -5.71518994223147E-13  -2.32526265944708E-27  -5.71518994223149E-13   3.27371760255640E-18   0.00000000000000E+00
      0.00000000000000E+00   0.00000000000000E+00   0.00000000000000E+00  -1.91540657853862E-21  -1.22420702293154E-18
     -1.22612242951008E-18  -6.66427035962715E-18
      2.55912747868156E-01
      1.00000000000000E+00   1.00000000000000E+00   0.00000000000000E+00   0.00000000000000E+00   1.94636572655629E-11
      1.01341995148917E-22   1.94636572656642E-11   5.86757539754851E-18   1.18254957363116E-02   1.18254957363116E-02
      0.00000000000000E+00   0.00000000000000E+00   0.00000000000000E+00   0.00000000000000E+00   0.00000000000000E+00
     -2.19575241144787E-18   0.00000000000000E+00   0.00000000000000E+00   0.00000000000000E+00   0.00000000000000E+00
     -1.94636565885835E-11  -8.51397097968013E-27  -1.94636565885835E-11   3.06965363606523E-18   0.00000000000000E+00
      0.00000000000000E+00   0.00000000000000E+00   0.00000000000000E+00  -1.93202145587136E-21  -6.96387204906038E-19
     -6.98319226361910E-19  -6.74147662216587E-18
      3.05912747868156E-01
      1.00000000000000E+00   1.00000000000000E+00   0.00000000000000E+00   0.00000000000000E+00   6.53282056894124E-10
      1.01313940563968E-22   6.53282056894225E-10   5.76999291756421E-18   1.11825495736312E-01   1.11825495736312E-01
      0.00000000000000E+00   0.00000000000000E+00   0.00000000000000E+00   0.00000000000000E+00   0.00000000000000E+00
     -1.78727766263849E-18   0.00000000000000E+00   0.00000000000000E+00   0.00000000000000E+00   0.00000000000000E+00
     -6.53282056315757E-10  -6.34553379394636E-27  -6.53282056315757E-10   2.83440454224651E-18   0.00000000000000E+00
      0.00000000000000E+00   0.00000000000000E+00   0.00000000000000E+00  -1.95173140327336E-21  -5.31742098915225E-19
     -5.33693830318498E-19  -6.81711979717223E-18
      3.55912747868156E-01
      1.00000000000000E+00   1.00000000000000E+00   0.00000000000000E+00   0.00000000000000E+00   2.14762866298409E-08
      1.01312136579231E-22   2.14762866298410E-08   5.66782038739974E-18   2.11825495736312E-01   2.11825495736312E-01
      0.00000000000000E+00   0.00000000000000E+00   0.00000000000000E+00   0.00000000000000E+00   0.00000000000000E+00
     -1.34184816449216E-18   0.00000000000000E+00   0.00000000000000E+00   0.00000000000000E+00   0.00000000000000E+00
     -2.14762866293531E-08  -2.89705476190587E-27  -2.14762866293531E-08   2.57005581517893E-18   0.00000000000000E+00
      0.00000000000000E+00   0.00000000000000E+00   0.00000000000000E+00  -1.98002425050049E-21  -4.84783100459084E-19
     -4.86763124709584E-19  -6.89602803808651E-18
      4.05912747868156E-01
      1.00000000000000E+00   1.00000000000000E+00   0.00000000000000E+00   0.00000000000000E+00   4.93539144733673E-07
      1.01883313916610E-22   4.93539144733673E-07   5.54931228738874E-18   3.11825495736312E-01   3.11825495736312E-01
      0.00000000000000E+00   0.00000000000000E+00   0.00000000000000E+00   0.00000000000000E+00   0.00000000000000E+00
     -7.98167732585784E-19   0.00000000000000E+00   0.00000000000000E+00   0.00000000000000E+00   0.00000000000000E+00
     -4.93539144733192E-07  -1.71865226779935E-27  -4.93539144733192E-07   2.29763647464796E-18   0.00000000000000E+00
      0.00000000000000E+00   0.00000000000000E+00   0.00000000000000E+00  -2.09012434290784E-21  -4.64859494373124E-19
     -4.66949618716031E-19  -7.04878102945092E-18
      4.55912747868156E-01
      1.00000000000000E+00   1.00000000000000E+00   0.00000000000000E+00   0.00000000000000E+00   3.03849616496228E-06
      1.05148561362803E-22   3.03849616496228E-06   5.37085529344159E-18   4.11825495736312E-01   4.11825495736312E-01