DF-ISE text

Info {
  version   = 1.0
  type      = xyplot
  datasets  = [
    "time"
    "D OuterVoltage" "D InnerVoltage" "D QuasiFermiPotential" "D DisplacementCurrent" "D eCurrent"
    "D hCurrent" "D TotalCurrent" "D Charge" "G OuterVoltage" "G InnerVoltage"
    "G QuasiFermiPotential" "G DisplacementCurrent" "G eCurrent" "G hCurrent" "G TotalCurrent"
    "G Charge" "S OuterVoltage" "S InnerVoltage" "S QuasiFermiPotential" "S DisplacementCurrent"
    "S eCurrent" "S hCurrent" "S TotalCurrent" "S Charge" "B OuterVoltage"
    "B InnerVoltage" "B QuasiFermiPotential" "B DisplacementCurrent" "B eCurrent" "B hCurrent"
    "B TotalCurrent" "B Charge" ]
  functions = [
    Time
    OuterVoltage InnerVoltage QuasiFermiPotential DisplacementCurrent eCurrent
    hCurrent TotalCurrent Charge OuterVoltage InnerVoltage
    QuasiFermiPotential DisplacementCurrent eCurrent hCurrent TotalCurrent
    Charge OuterVoltage InnerVoltage QuasiFermiPotential DisplacementCurrent
    eCurrent hCurrent TotalCurrent Charge OuterVoltage
    InnerVoltage QuasiFermiPotential DisplacementCurrent eCurrent hCurrent
    TotalCurrent Charge ]
}

Data {
      0.00000000000000E+00
      0.00000000000000E+00   0.00000000000000E+00   0.00000000000000E+00   0.00000000000000E+00  -2.04050493489957E-21
     -6.18167073657796E-39  -2.04050493489957E-21   3.93170401367996E-18  -5.00000000000000E-01  -5.00000000000000E-01
      0.00000000000000E+00   0.00000000000000E+00   0.00000000000000E+00   0.00000000000000E+00   0.00000000000000E+00
     -2.88638762869256E-18   0.00000000000000E+00   0.00000000000000E+00   0.00000000000000E+00   0.00000000000000E+00
     -2.04266113687849E-21  -2.47522955743188E-38  -2.04266113687849E-21   3.92877186904991E-18   0.00000000000000E+00
      0.00000000000000E+00   0.00000000000000E+00   0.00000000000000E+00  -5.03539742135958E-37  -2.96965432036812E-22
     -2.96965432036813E-22  -4.97408825403730E-18
      0.00000000000000E+00
      0.00000000000000E+00   0.00000000000000E+00   0.00000000000000E+00   0.00000000000000E+00   9.24878827621160E-21
      1.25502624261910E-36   9.24878827621160E-21   3.93029779569320E-18  -5.00000000000000E-01  -5.00000000000000E-01
      0.00000000000000E+00   0.00000000000000E+00   0.00000000000000E+00   0.00000000000000E+00   0.00000000000000E+00
     -2.88624917254589E-18   0.00000000000000E+00   0.00000000000000E+00   0.00000000000000E+00   0.00000000000000E+00
      1.85913597944872E-20   1.31241099376823E-36   1.85913597944872E-20   3.92734426755409E-18   0.00000000000000E+00
      0.00000000000000E+00   0.00000000000000E+00   0.00000000000000E+00  -9.01265848102220E-38   2.36934457892846E-22
      2.36934457892846E-22  -4.97139289070139E-18
      0.00000000000000E+00
      0.00000000000000E+00   0.00000000000000E+00   0.00000000000000E+00   0.00000000000000E+00  -6.23533632862480E-22
      1.18523166187590E-36  -6.23533632862479E-22   3.93029779569320E-18  -5.00000000000000E-01  -5.00000000000000E-01
      0.00000000000000E+00   0.00000000000000E+00   0.00000000000000E+00   0.00000000000000E+00   0.00000000000000E+00
     -2.88624917254589E-18   0.00000000000000E+00   0.00000000000000E+00   0.00000000000000E+00   0.00000000000000E+00
      1.92077625173021E-20   1.29766500026785E-36   1.92077625173021E-20   3.92734426755409E-18   0.00000000000000E+00
      0.00000000000000E+00   0.00000000000000E+00   0.00000000000000E+00   1.29825319371628E-37  -1.53629042921379E-22
     -1.53629042921379E-22  -4.97139289070139E-18
      1.00000000000000E-02
      1.00000000000000E-02   1.00000000000000E-02   0.00000000000000E+00   0.00000000000000E+00   2.91099408842013E-19
      3.58442015088504E-23   2.91135253043522E-19   3.95873925083557E-18  -5.00000000000000E-01  -5.00000000000000E-01
      0.00000000000000E+00   0.00000000000000E+00   0.00000000000000E+00   0.00000000000000E+00   0.00000000000000E+00
     -2.89934845660861E-18   0.00000000000000E+00   0.00000000000000E+00   0.00000000000000E+00   0.00000000000000E+00
     -1.32769670699641E-19  -3.07782262751428E-35  -1.32769670699641E-19   3.92703716516239E-18   0.00000000000000E+00
      0.00000000000000E+00   0.00000000000000E+00   0.00000000000000E+00  -4.52016188809428E-22  -4.73843607354974E-20
     -4.78363769243068E-20  -4.98642795938935E-18
      2.28000000000000E-02
      2.28000000000000E-02   2.28000000000000E-02   0.00000000000000E+00   0.00000000000000E+00   2.64091071738225E-19
      6.52728813330991E-23   2.64156344619558E-19   3.99498486409404E-18  -5.00000000000000E-01  -5.00000000000000E-01
      0.00000000000000E+00   0.00000000000000E+00   0.00000000000000E+00   0.00000000000000E+00   0.00000000000000E+00
     -2.91604211164802E-18   0.00000000000000E+00   0.00000000000000E+00   0.00000000000000E+00   0.00000000000000E+00
     -1.61735909534928E-19  -7.71033196367551E-35  -1.61735909534928E-19   3.92664239625279E-18   0.00000000000000E+00
      0.00000000000000E+00   0.00000000000000E+00   0.00000000000000E+00  -8.26033046978570E-22  -1.01910692037051E-19
     -1.02736725084029E-19  -5.00558514869882E-18
      3.97813333333333E-02
      3.97813333333333E-02   3.97813333333333E-02   0.00000000000000E+00   0.00000000000000E+00   3.29096643442200E-19
      8.70672231879921E-23   3.29183710665388E-19   4.04278992163986E-18  -5.00000000000000E-01  -5.00000000000000E-01
      0.00000000000000E+00   0.00000000000000E+00   0.00000000000000E+00   0.00000000000000E+00   0.00000000000000E+00
     -2.93805415110895E-18   0.00000000000000E+00   0.00000000000000E+00   0.00000000000000E+00   0.00000000000000E+00
     -1.59790080369422E-19  -1.48320083955812E-34  -1.59790080369422E-19   3.92611588688602E-18   0.00000000000000E+00
      0.00000000000000E+00   0.00000000000000E+00   0.00000000000000E+00  -1.10557767147289E-21  -1.68227968538817E-19
     -1.69333546210290E-19  -5.03085165741692E-18
      6.23099022222222E-02
      6.23099022222222E-02   6.23099022222222E-02   0.00000000000000E+00   0.00000000000000E+00   4.02207956919494E-19
      1.00310846389263E-22   4.02308267765883E-19   4.10570531094162E-18  -5.00000000000000E-01  -5.00000000000000E-01
      0.00000000000000E+00   0.00000000000000E+00   0.00000000000000E+00   0.00000000000000E+00   0.00000000000000E+00
     -2.96700005601816E-18   0.00000000000000E+00   0.00000000000000E+00   0.00000000000000E+00   0.00000000000000E+00
     -1.48501018586530E-19  -2.57538096357270E-34  -1.48501018586530E-19   3.92541280239689E-18   0.00000000000000E+00
      0.00000000000000E+00   0.00000000000000E+00   0.00000000000000E+00  -1.28002605629989E-21  -3.04184385441147E-19
     -3.05464411497446E-19  -5.06411805732034E-18
      9.21978036148148E-02
      9.21978036148148E-02   9.21978036148148E-02   0.00000000000000E+00   0.00000000000000E+00   4.98642571208737E-19
      1.06216569952621E-22   4.98748787778690E-19   4.18825121758916E-18  -5.00000000000000E-01  -5.00000000000000E-01
      0.00000000000000E+00   0.00000000000000E+00   0.00000000000000E+00   0.00000000000000E+00   0.00000000000000E+00
     -3.00490027027417E-18   0.00000000000000E+00   0.00000000000000E+00   0.00000000000000E+00   0.00000000000000E+00
     -1.66620712359271E-19  -4.11019233620314E-34  -1.66620712359271E-19   3.92447278589367E-18   0.00000000000000E+00
      0.00000000000000E+00   0.00000000000000E+00   0.00000000000000E+00  -1.36908530279399E-21  -9.47580261858147E-19
     -9.48949347160941E-19  -5.10782373320866E-18
      1.31849086128988E-01
      1.31849086128988E-01   1.31849086128988E-01   0.00000000000000E+00   0.00000000000000E+00   6.11729385910775E-19
      1.07125085123259E-22   6.11836510995898E-19   4.29605894082613E-18  -5.00000000000000E-01  -5.00000000000000E-01
      0.00000000000000E+00   0.00000000000000E+00   0.00000000000000E+00   0.00000000000000E+00   0.00000000000000E+00
     -3.05417487460191E-18   0.00000000000000E+00   0.00000000000000E+00   0.00000000000000E+00   0.00000000000000E+00
     -1.62739820750292E-19  -6.24965168978716E-34  -1.62739820750292E-19   3.92321495430292E-18   0.00000000000000E+00
      0.00000000000000E+00   0.00000000000000E+00   0.00000000000000E+00  -1.41306490184544E-21  -4.27592340946467E-19
     -4.29005405848313E-19  -5.16509902052714E-18
      1.83527924339126E-01
      1.83527924339126E-01   1.83527924339126E-01   0.00000000000000E+00   0.00000000000000E+00   7.33817804414713E-19
      1.05721536800809E-22   7.33923525951514E-19   4.43347715057923E-18  -5.00000000000000E-01  -5.00000000000000E-01
      0.00000000000000E+00   0.00000000000000E+00   0.00000000000000E+00   0.00000000000000E+00   0.00000000000000E+00
     -3.11639954750693E-18   0.00000000000000E+00   0.00000000000000E+00   0.00000000000000E+00   0.00000000000000E+00
     -1.91772631124848E-19  -9.26087262634145E-34  -1.91772631124849E-19   3.92156176655856E-18   0.00000000000000E+00
      0.00000000000000E+00   0.00000000000000E+00   0.00000000000000E+00  -1.44946100872307E-21  -5.23475555630821E-19
     -5.24925016639544E-19  -5.23863936963085E-18
      2.50882676806340E-01
      2.50882676806340E-01   2.50882676806340E-01   0.00000000000000E+00   0.00000000000000E+00   8.85696463911655E-19
      1.03689577831230E-22   8.85800153489486E-19   4.60712912609512E-18  -5.00000000000000E-01  -5.00000000000000E-01
      0.00000000000000E+00   0.00000000000000E+00   0.00000000000000E+00   0.00000000000000E+00   0.00000000000000E+00
     -3.19368056602385E-18   0.00000000000000E+00   0.00000000000000E+00   0.00000000000000E+00   0.00000000000000E+00
     -2.20109214983882E-19  -1.56894954272429E-33  -2.20109214983884E-19   3.91939152018486E-18   0.00000000000000E+00
      0.00000000000000E+00   0.00000000000000E+00   0.00000000000000E+00  -1.49606409127544E-21  -6.54169465577561E-19
     -6.55665529668837E-19  -5.33284008025613E-18
      3.38668370855276E-01
      3.38668370855276E-01   3.38668370855276E-01   0.00000000000000E+00   0.00000000000000E+00   1.16623303543107E-18
      1.01482931033875E-22   1.16633451836210E-18   4.82488586393339E-18  -5.00000000000000E-01  -5.00000000000000E-01
      0.00000000000000E+00   0.00000000000000E+00   0.00000000000000E+00   0.00000000000000E+00   0.00000000000000E+00
     -3.28804513696493E-18   0.00000000000000E+00   0.00000000000000E+00   0.00000000000000E+00   0.00000000000000E+00
     -2.43310378680327E-19  -2.67360499687368E-33  -2.43310378680330E-19   3.91654109378867E-18   0.00000000000000E+00
      0.00000000000000E+00   0.00000000000000E+00   0.00000000000000E+00  -1.55618258153927E-21  -9.18174797200061E-19
     -9.19730979781600E-19  -5.45338182075712E-18
      4.53082392099055E-01
      4.53082392099055E-01   4.53082392099055E-01   0.00000000000000E+00   0.00000000000000E+00   1.53561163351254E-18
      9.94070014550187E-23   1.53571104051399E-18   5.09834151893660E-18  -5.00000000000000E-01  -5.00000000000000E-01
      0.00000000000000E+00   0.00000000000000E+00   0.00000000000000E+00   0.00000000000000E+00   0.00000000000000E+00
     -3.40328437102789E-18   0.00000000000000E+00   0.00000000000000E+00   0.00000000000000E+00   0.00000000000000E+00
     -2.89508836355024E-19  -4.09610120455465E-33  -2.89508836355028E-19   3.91277583586657E-18   0.00000000000000E+00
      0.00000000000000E+00   0.00000000000000E+00   0.00000000000000E+00  -1.62664752146424E-21  -1.25749231116755E-18
     -1.25911895868901E-18  -5.60783298377528E-18
      6.02201999786781E-01
      6.02201999786781E-01   6.02201999786781E-01   0.00000000000000E+00   0.00000000000000E+00   1.78070443283729E-18
      9.92995841860555E-23   1.78080373242148E-18   5.44517208723568E-18  -5.00000000000000E-01  -5.00000000000000E-01
      0.00000000000000E+00   0.00000000000000E+00   0.00000000000000E+00   0.00000000000000E+00   0.00000000000000E+00
     -3.54691571144657E-18   0.00000000000000E+00   0.00000000000000E+00   0.00000000000000E+00   0.00000000000000E+00
     -3.09155400270088E-19  -5.40330129348472E-33  -3.09155400270093E-19   3.90777536174884E-18   0.00000000000000E+00
      0.00000000000000E+00   0.00000000000000E+00   0.00000000000000E+00  -1.69834246601141E-21  -1.44262879445494E-18
     -1.44432713692095E-18  -5.80603173753796E-18
      7.93075097627070E-01
      7.93075097627070E-01   7.93075097627070E-01   0.00000000000000E+00   0.00000000000000E+00   1.99075936047969E-18
      1.00419455818359E-22   1.99085977993551E-18   5.87631126497645E-18  -5.00000000000000E-01  -5.00000000000000E-01
      0.00000000000000E+00   0.00000000000000E+00   0.00000000000000E+00   0.00000000000000E+00   0.00000000000000E+00
     -3.72236746551008E-18   0.00000000000000E+00   0.00000000000000E+00   0.00000000000000E+00   0.00000000000000E+00
     -4.03821492556523E-19  -7.32976203854556E-33  -4.03821492556530E-19   3.90130378397178E-18   0.00000000000000E+00
      0.00000000000000E+00   0.00000000000000E+00   0.00000000000000E+00  -1.77269796355111E-21  -1.56793089189205E-18
     -1.56970358985560E-18  -6.05524758343816E-18
      9.93075097627070E-01
      9.93075097627070E-01   9.93075097627070E-01   0.00000000000000E+00   0.00000000000000E+00   2.37613493866742E-18
      1.01464054855070E-22   2.37623640272227E-18   6.31090599055488E-18  -5.00000000000000E-01  -5.00000000000000E-01
      0.00000000000000E+00   0.00000000000000E+00   0.00000000000000E+00   0.00000000000000E+00   0.00000000000000E+00
     -3.89430467075647E-18   0.00000000000000E+00   0.00000000000000E+00   0.00000000000000E+00   0.00000000000000E+00
     -5.41095600133816E-19  -1.11602765488389E-32  -5.41095600133827E-19   3.89455208145442E-18   0.00000000000000E+00
      0.00000000000000E+00   0.00000000000000E+00   0.00000000000000E+00  -1.83536388031195E-21  -1.84829845114212E-18
     -1.85013381502243E-18  -6.31115340125284E-18
      1.00000000000000E+00
      1.00000000000000E+00   1.00000000000000E+00   0.00000000000000E+00   0.00000000000000E+00   2.37024968663093E-18
      1.01500246959854E-22   2.37035118687789E-18   6.32570035099782E-18  -5.00000000000000E-01  -5.00000000000000E-01
      0.00000000000000E+00   0.00000000000000E+00   0.00000000000000E+00   0.00000000000000E+00   0.00000000000000E+00
     -3.90008140064981E-18   0.00000000000000E+00   0.00000000000000E+00   0.00000000000000E+00   0.00000000000000E+00
     -5.46835844020483E-19  -1.13582860672517E-32  -5.46835844020495E-19   3.89431858197342E-18   0.00000000000000E+00
      0.00000000000000E+00   0.00000000000000E+00   0.00000000000000E+00  -1.83732696219327E-21  -1.86136397603332E-18
     -1.86320130299552E-18  -6.31993753232142E-18
      1.00000000000000E-03
      1.00000000000000E+00   1.00000000000000E+00   0.00000000000000E+00   0.00000000000000E+00   2.42836913957530E-18
      1.01499593823949E-22   2.42847063916912E-18   6.32403294857964E-18  -4.98000000000000E-01  -4.98000000000000E-01
      0.00000000000000E+00   0.00000000000000E+00   0.00000000000000E+00   0.00000000000000E+00   0.00000000000000E+00
     -3.89394981034877E-18   0.00000000000000E+00   0.00000000000000E+00   0.00000000000000E+00   0.00000000000000E+00
     -5.54696138039385E-19  -1.19869030530357E-32  -5.54696138039397E-19   3.89163448433831E-18   0.00000000000000E+00
      0.00000000000000E+00   0.00000000000000E+00   0.00000000000000E+00  -1.83780264797248E-21  -1.86017775823061E-18
     -1.86201556087858E-18  -6.32171762256917E-18
      2.30333333333333E-03
      1.00000000000000E+00   1.00000000000000E+00   0.00000000000000E+00   0.00000000000000E+00   2.47808712183388E-18
      1.01498742825414E-22   2.47818862057671E-18   6.32185858125261E-18  -4.95393333333333E-01  -4.95393333333333E-01
      0.00000000000000E+00   0.00000000000000E+00   0.00000000000000E+00   0.00000000000000E+00   0.00000000000000E+00
     -3.88595582265376E-18   0.00000000000000E+00   0.00000000000000E+00   0.00000000000000E+00   0.00000000000000E+00
     -6.26741584738014E-19  -1.28619995299818E-32  -6.26741584738027E-19   3.88813288246699E-18   0.00000000000000E+00
      0.00000000000000E+00   0.00000000000000E+00   0.00000000000000E+00  -1.83842049863715E-21   1.99079389057978E-16
      1.99077550637479E-16  -6.32403564106584E-18
      4.06283333333333E-03
      1.00000000000000E+00   1.00000000000000E+00   0.00000000000000E+00   0.00000000000000E+00   2.54951578470994E-18
      1.01497594441209E-22   2.54961728230438E-18   6.31892105374283E-18  -4.91874333333333E-01  -4.91874333333333E-01
      0.00000000000000E+00   0.00000000000000E+00   0.00000000000000E+00   0.00000000000000E+00   0.00000000000000E+00
     -3.87515947195755E-18   0.00000000000000E+00   0.00000000000000E+00   0.00000000000000E+00   0.00000000000000E+00
     -6.73340566727835E-19  -1.41523661409146E-32  -6.73340566727850E-19   3.88339979021727E-18   0.00000000000000E+00
      0.00000000000000E+00   0.00000000000000E+00   0.00000000000000E+00  -1.83925077278513E-21  -1.84948321150763E-18
     -1.85132246228041E-18  -6.32716137200255E-18
      6.39710333333333E-03
      1.00000000000000E+00   1.00000000000000E+00   0.00000000000000E+00   0.00000000000000E+00   2.65772929533716E-18
      1.01496071754148E-22   2.65783079140891E-18   6.31502014778353E-18  -4.87205793333333E-01  -4.87205793333333E-01
      0.00000000000000E+00   0.00000000000000E+00   0.00000000000000E+00   0.00000000000000E+00   0.00000000000000E+00
     -3.86082836754521E-18   0.00000000000000E+00   0.00000000000000E+00   0.00000000000000E+00   0.00000000000000E+00
     -7.61536858009581E-19  -1.60793554791655E-32  -7.61536858009597E-19   3.87711014229670E-18   0.00000000000000E+00
      0.00000000000000E+00   0.00000000000000E+00   0.00000000000000E+00  -1.84034547927879E-21  -1.84143725896602E-18
     -1.84327760444530E-18  -6.33130192253501E-18
      9.49390153333333E-03
      1.00000000000000E+00   1.00000000000000E+00   0.00000000000000E+00   0.00000000000000E+00   2.78523046801489E-18
      1.01494053160478E-22   2.78533196206805E-18   6.30983826381811E-18  -4.81012196933333E-01  -4.81012196933333E-01
      0.00000000000000E+00   0.00000000000000E+00   0.00000000000000E+00   0.00000000000000E+00   0.00000000000000E+00
     -3.84180173525636E-18   0.00000000000000E+00   0.00000000000000E+00   0.00000000000000E+00   0.00000000000000E+00
     -9.23915580089651E-19  -1.90738826256790E-32  -9.23915580089670E-19   3.86874777923746E-18   0.00000000000000E+00
      0.00000000000000E+00   0.00000000000000E+00   0.00000000000000E+00  -1.84178583170528E-21  -1.83164319932607E-18
     -1.83348498515778E-18  -6.33678430779921E-18
      1.36023204786667E-02
      1.00000000000000E+00   1.00000000000000E+00   0.00000000000000E+00   0.00000000000000E+00   3.00680811045231E-18
      1.01491377889629E-22   3.00690960183020E-18   6.30295181736152E-18  -4.72795359042667E-01  -4.72795359042667E-01
      0.00000000000000E+00   0.00000000000000E+00   0.00000000000000E+00   0.00000000000000E+00   0.00000000000000E+00
     -3.81653494189018E-18   0.00000000000000E+00   0.00000000000000E+00   0.00000000000000E+00   0.00000000000000E+00
     -1.16289882661636E-18  -2.39811263860542E-32  -1.16289882661638E-18   3.85762236279059E-18   0.00000000000000E+00
      0.00000000000000E+00   0.00000000000000E+00   0.00000000000000E+00  -1.84367568915570E-21  -1.81894893898483E-18
     -1.82079261467399E-18  -6.34403923826192E-18
      1.90528229461422E-02
      1.00000000000000E+00   1.00000000000000E+00   0.00000000000000E+00   0.00000000000000E+00   3.45274666347289E-18
      1.01487833709929E-22   3.45284815130660E-18   6.29379485096599E-18  -4.61894354107716E-01  -4.61894354107716E-01
      0.00000000000000E+00   0.00000000000000E+00   0.00000000000000E+00   0.00000000000000E+00   0.00000000000000E+00
     -3.78297049550560E-18   0.00000000000000E+00   0.00000000000000E+00   0.00000000000000E+00   0.00000000000000E+00
     -1.63254785207699E-18  -3.26215457659972E-32  -1.63254785207703E-18   3.84280854105233E-18   0.00000000000000E+00
      0.00000000000000E+00   0.00000000000000E+00   0.00000000000000E+00  -1.84614616313758E-21  -1.80414938383535E-18
     -1.80599552999848E-18  -6.35363289651272E-18
      2.62838228863265E-02
      1.00000000000000E+00   1.00000000000000E+00   0.00000000000000E+00   0.00000000000000E+00   4.34706094752986E-18
      1.01483141120179E-22   4.34716243067098E-18   6.28160928747873E-18  -4.47432354227347E-01  -4.47432354227347E-01
      0.00000000000000E+00   0.00000000000000E+00   0.00000000000000E+00   0.00000000000000E+00   0.00000000000000E+00
     -3.73836403232457E-18   0.00000000000000E+00   0.00000000000000E+00   0.00000000000000E+00   0.00000000000000E+00
     -2.54693522484246E-18  -4.93800447377490E-32  -2.54693522484251E-18   3.82306248046145E-18   0.00000000000000E+00
      0.00000000000000E+00   0.00000000000000E+00   0.00000000000000E+00  -1.84936002678098E-21  -1.78576086603957E-18
     -1.78761022606635E-18  -6.36630773561561E-18
      3.58769494736376E-02
      1.00000000000000E+00   1.00000000000000E+00   0.00000000000000E+00   0.00000000000000E+00   6.42874066184182E-18
      1.01476933391276E-22   6.42884213877522E-18   6.26537609708219E-18  -4.28246101052725E-01  -4.28246101052725E-01
      0.00000000000000E+00   0.00000000000000E+00   0.00000000000000E+00   0.00000000000000E+00   0.00000000000000E+00
     -3.67904792991589E-18   0.00000000000000E+00   0.00000000000000E+00   0.00000000000000E+00   0.00000000000000E+00
     -4.63159781491563E-18  -8.64356187861983E-32  -4.63159781491572E-18   3.79670618382651E-18   0.00000000000000E+00
      0.00000000000000E+00   0.00000000000000E+00   0.00000000000000E+00  -1.85351547392795E-21  -1.76955235977578E-18
     -1.77140587524970E-18  -6.38303435099282E-18
      4.86038307461369E-02
      1.00000000000000E+00   1.00000000000000E+00   0.00000000000000E+00   0.00000000000000E+00   1.22944937693392E-17
      1.01468731943308E-22   1.22945952380711E-17   6.24371831374887E-18  -4.02792338507726E-01  -4.02792338507726E-01
      0.00000000000000E+00   0.00000000000000E+00   0.00000000000000E+00   0.00000000000000E+00   0.00000000000000E+00
     -3.60010585635486E-18   0.00000000000000E+00   0.00000000000000E+00   0.00000000000000E+00   0.00000000000000E+00
     -1.05681730190269E-17  -1.84287490648841E-31  -1.05681730190270E-17   3.76146398915414E-18   0.00000000000000E+00
      0.00000000000000E+00   0.00000000000000E+00   0.00000000000000E+00  -1.85884992929828E-21  -1.78655329024081E-18
     -1.78841214017010E-18  -6.40507644654815E-18
      6.54881599009861E-02
      1.00000000000000E+00   1.00000000000000E+00   0.00000000000000E+00   0.00000000000000E+00   3.39453465002219E-17
      1.01457917363713E-22   3.39454479581392E-17   6.21476071932750E-18  -3.69023680198028E-01  -3.69023680198028E-01
      0.00000000000000E+00   0.00000000000000E+00   0.00000000000000E+00   0.00000000000000E+00   0.00000000000000E+00
     -3.49491073936657E-18   0.00000000000000E+00   0.00000000000000E+00   0.00000000000000E+00   0.00000000000000E+00
     -3.22342042160133E-17  -5.12829131575964E-31  -3.22342042160138E-17   3.71422001381416E-18   0.00000000000000E+00
      0.00000000000000E+00   0.00000000000000E+00   0.00000000000000E+00  -1.86564864862907E-21  -2.08516817548440E-18
     -2.08703382413303E-18  -6.43406999377509E-18
      8.78880365797527E-02
      1.00000000000000E+00   1.00000000000000E+00   0.00000000000000E+00   0.00000000000000E+00   1.48905395058156E-16
      1.01443697736232E-22   1.48905496501854E-16   6.17592006361784E-18  -3.24223926840495E-01  -3.24223926840495E-01
      0.00000000000000E+00   0.00000000000000E+00   0.00000000000000E+00   0.00000000000000E+00   0.00000000000000E+00
     -3.35441426026552E-18   0.00000000000000E+00   0.00000000000000E+00   0.00000000000000E+00   0.00000000000000E+00
     -1.47280667255678E-16  -2.04090876901174E-30  -1.47280667255680E-16   3.65060777293650E-18   0.00000000000000E+00
      0.00000000000000E+00   0.00000000000000E+00   0.00000000000000E+00  -1.87426924166216E-21  -4.29693735780155E-18
     -4.29881162704322E-18  -6.47211357628882E-18
      1.17605206306916E-01
      1.00000000000000E+00   1.00000000000000E+00   0.00000000000000E+00   0.00000000000000E+00   1.15288161600842E-15
      1.01425078009822E-22   1.15288171743349E-15   6.12358550354206E-18  -2.64789587386167E-01  -2.64789587386167E-01
      0.00000000000000E+00   0.00000000000000E+00   0.00000000000000E+00   0.00000000000000E+00   0.00000000000000E+00
     -3.16580883632595E-18   0.00000000000000E+00   0.00000000000000E+00   0.00000000000000E+00   0.00000000000000E+00
     -1.15124365103914E-15  -1.31462344356803E-29  -1.15124365103915E-15   3.56407366155782E-18   0.00000000000000E+00
      0.00000000000000E+00   0.00000000000000E+00   0.00000000000000E+00  -1.88518537901914E-21  -1.62359115514157E-18
     -1.62547634052058E-18  -6.52185032877393E-18
      1.56336584184653E-01
      1.00000000000000E+00   1.00000000000000E+00   0.00000000000000E+00   0.00000000000000E+00   1.73582552312741E-14
      1.01401230106265E-22   1.73582553326754E-14   6.05391984795740E-18  -1.87326831630694E-01  -1.87326831630694E-01
      0.00000000000000E+00   0.00000000000000E+00   0.00000000000000E+00   0.00000000000000E+00   0.00000000000000E+00
     -2.91365063861489E-18   0.00000000000000E+00   0.00000000000000E+00   0.00000000000000E+00   0.00000000000000E+00
     -1.73566622952991E-14  -1.51461906152316E-28  -1.73566622952992E-14   3.44507736304478E-18   0.00000000000000E+00
      0.00000000000000E+00   0.00000000000000E+00   0.00000000000000E+00  -1.89876654488397E-21  -1.58304362941740E-18
     -1.58494239596228E-18  -6.58534657238728E-18
      2.05912747868156E-01
      1.00000000000000E+00   1.00000000000000E+00   0.00000000000000E+00   0.00000000000000E+00   5.71520233682021E-13
      1.01371408440399E-22   5.71520233783393E-13   5.96239127545185E-18  -8.81745042636883E-02  -8.81745042636883E-02
      0.00000000000000E+00   0.00000000000000E+00   0.00000000000000E+00   0.00000000000000E+00   0.00000000000000E+00
     -2.57183851838110E-18   0.00000000000000E+00   0.00000000000000E+00   0.00000000000000E+00   0.00000000000000E+00
     -5.71518994884936E-13  -2.32526265940866E-27  -5.71518994884938E-13   3.27371760255640E-18   0.00000000000000E+00
      0.00000000000000E+00   0.00000000000000E+00   0.00000000000000E+00  -1.91540657853862E-21  -1.22425855046477E-18
     -1.22617395704331E-18  -6.66427035962715E-18
      2.55912747868156E-01
      1.00000000000000E+00   1.00000000000000E+00   0.00000000000000E+00   0.00000000000000E+00   1.94636572651512E-11
      1.01341995148917E-22   1.94636572652526E-11   5.86757539754851E-18   1.18254957363116E-02   1.18254957363116E-02
      0.00000000000000E+00   0.00000000000000E+00   0.00000000000000E+00   0.00000000000000E+00   0.00000000000000E+00
     -2.19575241144787E-18   0.00000000000000E+00   0.00000000000000E+00   0.00000000000000E+00   0.00000000000000E+00
     -1.94636565885835E-11  -8.51397097979401E-27  -1.94636565885835E-11   3.06965363606523E-18   0.00000000000000E+00
      0.00000000000000E+00   0.00000000000000E+00   0.00000000000000E+00  -1.93202145587049E-21  -6.96425711687743E-19
     -6.98357733143614E-19  -6.74147662216587E-18
      3.05912747868156E-01
      1.00000000000000E+00   1.00000000000000E+00   0.00000000000000E+00   0.00000000000000E+00   6.53282056894570E-10
      1.01313940563968E-22   6.53282056894671E-10   5.76999291756421E-18   1.11825495736312E-01   1.11825495736312E-01
      0.00000000000000E+00   0.00000000000000E+00   0.00000000000000E+00   0.00000000000000E+00   0.00000000000000E+00
     -1.78727766263849E-18   0.00000000000000E+00   0.00000000000000E+00   0.00000000000000E+00   0.00000000000000E+00
     -6.53282056315757E-10  -6.34553379395265E-27  -6.53282056315757E-10   2.83440454224651E-18   0.00000000000000E+00
      0.00000000000000E+00   0.00000000000000E+00   0.00000000000000E+00  -1.95173140327336E-21  -5.31765570713846E-19
     -5.33717302117119E-19  -6.81711979717223E-18
      3.55912747868156E-01
      1.00000000000000E+00   1.00000000000000E+00   0.00000000000000E+00   0.00000000000000E+00   2.14762866298410E-08
      1.01312136579231E-22   2.14762866298411E-08   5.66782038739974E-18   2.11825495736312E-01   2.11825495736312E-01
      0.00000000000000E+00   0.00000000000000E+00   0.00000000000000E+00   0.00000000000000E+00   0.00000000000000E+00
     -1.34184816449217E-18   0.00000000000000E+00   0.00000000000000E+00   0.00000000000000E+00   0.00000000000000E+00
     -2.14762866293520E-08  -2.89705476189869E-27  -2.14762866293520E-08   2.57005581517893E-18   0.00000000000000E+00
      0.00000000000000E+00   0.00000000000000E+00   0.00000000000000E+00  -1.98002425050049E-21  -4.84821049925728E-19
     -4.86801074176228E-19  -6.89602803808651E-18
      4.05912747868156E-01
      1.00000000000000E+00   1.00000000000000E+00   0.00000000000000E+00   0.00000000000000E+00   4.93539144733666E-07
      1.01883313916610E-22   4.93539144733666E-07   5.54931228738874E-18   3.11825495736312E-01   3.11825495736312E-01
      0.00000000000000E+00   0.00000000000000E+00   0.00000000000000E+00   0.00000000000000E+00   0.00000000000000E+00
     -7.98167732585784E-19   0.00000000000000E+00   0.00000000000000E+00   0.00000000000000E+00   0.00000000000000E+00
     -4.93539144733193E-07  -1.71865226776552E-27  -4.93539144733193E-07   2.29763647464796E-18   0.00000000000000E+00
      0.00000000000000E+00   0.00000000000000E+00   0.00000000000000E+00  -2.09012434290784E-21  -4.64877949810895E-19
     -4.66968074153803E-19  -7.04878102945091E-18
      4.55912747868156E-01
      1.00000000000000E+00   1.00000000000000E+00   0.00000000000000E+00   0.00000000000000E+00   3.03849616496228E-06
      1.05148561362803E-22   3.03849616496228E-06   5.37085529344159E-18   4.11825495736312E-01   4.11825495736312E-01